<?xml version="1.0"?>
<VTKFile type="UnstructuredGrid" version="0.1" byte_order="LittleEndian" compressor="vtkZLibDataCompressor">
  <UnstructuredGrid>
    <Piece NumberOfPoints="1217" NumberOfCells="2304">
      <PointData>
        <DataArray type="Float64" Name="u" format="ascii" RangeMin="-2.6160327444e-07" RangeMax="39013231.494">
          1.2357295852e-10 8.9411774232e-11 -2.2949049457e-10 7.0864978963e-10 -3.2284835842e-09 29223.431466
          -2.4332175736e-09 2.0366541601e-09 -9.1718825108e-09 1.456527587e-08 242098.3424 113473.52417
          425200.54944 841148.98818 1787300.7896 2.2570985661e-11 2.1922670258e-10 1.7874265208e-10
          6.9084495692e-10 8.4199618927e-10 5.5264996381e-10 -1.422587888e-09 -1.907228748e-09 -5.3742909513e-09
          -3.0561383495e-11 1684.3318862 -1.1580452067e-09 2.4499613177e-11 -1.0533510734e-09 -9.48894326e-10
          23692692.45 21605314.568 23372847.189 19303452.651 20952075.044 22437550.324
          16838975.516 18366763.8 14267893.19 15675349.576 16949748.931 19748428.499
          20953705.124 18077237.605 19048137.953 18498739.469 16986681.933 20215081.01
          15411408.307 18526640.226 21660666.733 13789748.661 16772363.955 12162892.931
          14975443.298 17913891.937 19821498.427 22821441.832 20847242.266 -6.0745660838e-08
          -5.9264458472e-08 5.6799233783e-08 -4.7673963546e-08 6.7761155014e-08 117234.67751 -4.6254261866e-08
          5.6839926119e-08 -4.087995321e-08 5.1231626507e-08 94977.835877 107155.53482 383931.31136
          340460.00989 761433.30677 -5.7911290212e-08 9.1706939755e-08 -6.2093464087e-08 523879.11448
          7.7791979009e-08 -5.4453401699e-08 1739858.2706 486052.06859 3586355.9669 1567834.3688
          412350.80715 8.7345095158e-08 -4.9975976741e-08 -4.9364808164e-08 -2.488102566e-08 8.8720019326e-08
          444771.77547 494001.7825 1501237.9129 1653218.482 3113635.1042 3450462.8661
          3634905.8223 1730709.584 3685802.9508 -3.2459651056e-08 -8.4463751345e-09 3.5599588965e-07
          -2.2289427844e-08 -9.2529567448e-08 1588227.6999 -2.9187248151e-08 -1.2591311837e-08 -5.0953911248e-09
          1.5075963691e-07 1573328.9003 1589618.2357 5151910.4819 5177982.9146 10346603.054
          17813163.727 18077987.102 21066008.08 17481857.371 20674718.784 23788349.846
          16181503.513 19421445.526 14393909.177 17532761.032 20681900.61 22638861.395
          25744849.528 23761033.364 26709466.043 14559802.304 11344805.358 14484472.222
          8299437.6849 10995331.802 5548324.5826 7772680.5856 10149057.32 13718992.533
          12435729.166 -4.9079070431e-08 -7.3141079325e-08 5.1360280773e-08 -7.2574491488e-08 9.668202208e-08
          266038.25348 -7.9752437886e-08 9.9441742914e-08 -8.1022112516e-08 1.0194188785e-07 290133.78547
          282996.24803 998835.88449 1028504.5437 2270304.4089 -7.8325359329e-09 1.2661939353e-08
          -1.3916030354e-08 277643.03124 2.450712532e-08 -1.9870665785e-08 1126011.1241 381964.62063
          2712814.524 1467048.464 489511.83146 1.7537223147e-08 -2.4811212215e-08 6.9822034486e-08
          -3.5726390568e-08 9.6555057783e-09 64837.170164 133705.69134 144698.49586 319685.13328
          175600.88817 453264.71941 977633.17081 649115.78639 1747476.3141 -1.8064232065e-08
          -1.6239493496e-08 3.9100106399e-08 -1.9980003514e-08 9.5419285972e-09 485395.19626 -2.1969276952e-08
          3.4235626244e-08 -2.3998225907e-08 3.3743224426e-08 718493.37898 604999.73809 1702392.2298
          2086556.0145 3656442.8669 9406466.9628 6806964.9664 5915471.87 4585923.6841
          3918080.0726 3223303.0811 2803877.9898 2350216.0816 1488184.961 1219711.7695
          957754.62984 1890829.8163 1441471.3749 707501.53141 479782.28123 9811584.5585
          9952515.3978 7111509.5524 9851715.8144 7213205.6375 9525455.6013 7125928.7733
          4835669.4476 4780432.4784 2899226.5434 6531513.383 5041346.4195 5331002.569
          3622860.0124 3793542.9242 3875166.6072 2364944.1944 2454520.1952 1342378.3063
          1382301.0916 1390056.1797 2487910.7132 2464795.7793 1364976.9657 1306357.834
          6148216.7054 5671267.9546 4782145.5043 5115523.4224 4453913.5399 4499344.2836
          4066790.8411 3279979.5363 3481689.3142 2310892.6975 8416236.021 10073271.674
          7765170.6897 11348511.915 9107764.1627 10039375.01 8027618.7745 7008033.7236
          6167627.8004 8065843.785 6216566.8844 7500123.4607 4548748.9901 5780227.6547
          6866514.6896 3104749.5072 4231052.9947 1909468.219 2888867.2403 3869573.8445
          5287308.5805 6166083.9276 4745306.1445 5413412.3643 1848935.6561 1521732.1378
          2138956.6661 1161522.6935 1605669.1499 2074612.4642 803231.15995 1095684.7364
          482529.47255 651466.47726 828635.20014 1404054.2802 1710691.6749 1003128.7629
          1170260.445 1374184.7273 953696.76518 1153451.4117 601455.6244 824987.83528
          328767.60939 542911.74145 655140.81392 893693.01315 626048.874 -1.3687095214e-09
          -1.0452217205e-08 9.7117231488e-08 -3.2743802552e-09 -3.8068737463e-08 57283.195301 -1.2846330577e-09
          4.1397177829e-09 -2.4735085172e-10 -1.1386507328e-09 16019.956791 33208.491573 123283.79175
          64182.742301 142078.33529 -1.2042471926e-08 8.4471879897e-09 -5.5444277436e-09 565125.93454
          1.5503276339e-08 -4.9558024493e-09 1771999.9409 429528.63737 3441697.2937 1326403.7798
          296134.13455 5.5059335591e-09 -2.8644501032e-09 3.7588169513e-09 -1.2523917178e-09 2.1087815737e-08
          823583.50559 690655.80926 2952102.8337 2548518.2726 6459707.2047 5721278.9952
          4962484.9658 2157041.3916 4196309.5491 22618624.66 25345552.121 21363534.269
          27390921.275 23796718.903 19953490.374 28675491.036 25524672.527 29161688.839
          26523052.444 23446541.068 22030529.298 18366335.388 20082350.753 16611667.855
          26547345.618 30171512.645 29224025.122 33243608.543 32672734.485 35561441.34
          35483538.232 34288541.935 31093678.023 32112391.948 23673105.788 24103808.943
          27361070.728 23837664.178 27410724.86 22893320.143 26670511.704 30152206.701
          30598626.736 33163757.648 11748665.105 12480592.326 15571611.33 11672110.402
          15803879.839 19497975.916 9397423.0412 14218012.223 6311291.8248 11162827.94
          16594515.371 19015382.467 23280614.849 21956667.642 26689318.291 29560820.819
          29879425.824 33056954.562 29247281.312 33055413.157 35852712.912 27642850.859
          31966420.098 25165106.567 29851302.266 33906911.442 35455847.875 37769243.748
          36970823.867 38763611.328 23852256.385 17284056.233 23555394.181 10805190.414
          16616745.655 5528260.6755 10108549.895 15350618.798 22440560.212 20567589.944
          -1.3492038256e-08 -1.1231106371e-08 4.4698395879e-09 -6.7587226232e-09 1.9590974584e-08 382007.45515
          -4.4207524594e-09 2.0828078191e-08 -6.3390564276e-09 -5.3606659044e-08 204249.61952 288344.71511
          1301828.1146 995703.68213 2714750.8401 2776854.1538 4123648.8831 3802415.4725
          5655946.8376 7713625.3342 4755615.6617 7086651.0906 9678175.1227 12409046.115
          1308086.6903 384263.34988 2.4472056571e-08 530584.97695 1797079.6437 2267593.8891
          -1.5475539715e-08 -2.349072146e-08 3.6766789862e-08 -2.420126691e-08 1.0555383166e-08 1.1258092185e-07
          802772.23848 665664.37285 2671893.9923 3.4360315584e-10 -2.3405560974e-09 21741.114291
          2.9428872371e-09 -2.3498765048e-09 80032.889064 41081.017476 6.808286652e-09 -8.3426871449e-09
          8436.4236459 8685.9738387 5.1834669329e-09 21482.162457 34224.373727 78403.866763
          -1.0744820271e-08 -1.3791921452e-08 1.2687870298e-08 -2.3231394784e-08 2.0972135027e-08 2.2114386128e-08
          55456.419765 38244.07986 135086.10381 16585688.932 16823778.129 14148252.894
          14435207.219 14389289.757 11777961.246 12096692.506 12133675.008 11876951.362
          15614865.402 14504066.357 13275404.156 12120443.164 13190249.213 10852363.08
          12197927.705 10197530.668 11253462.53 8301012.536 9318155.5494 7503219.5622
          8330353.6713 10175180.395 9004495.6066 14433978.27 14106862.925 12342181.589
          13330311.623 12047667.351 10322689.142 16133195.435 13502900.031 14826923.395
          10763637.672 12425822.705 9907941.5638 11287145.795 13456817.001 12041129.852
          655931.59449 1173807.3621 545850.65134 980722.67498 1536811.827 435194.42851
          787597.25555 1240468.1441 1778320.698 292568.41556 81402.894043 4.3361154973e-08
          67073.158979 242301.43185 191248.62384 -3.4749321703e-08 -2.7233644753e-08 3.058521322e-08
          -2.3911828361e-08 5.235839504e-08 -6.05820084e-08 37062.326585 52329.125078 141531.14302
          1.4906347111e-07 -2.3124151694e-08 1163738.5745 -1.2501244467e-08 -1.8304723261e-08 3495718.419
          995901.82303 2.3736813314e-08 -1.4433303851e-08 704241.75538 2176100.5984 4457947.161
          5299150.9208 2861122.6353 5997602.536 7718260.9651 12725812.908 8696125.4843
          17901590.94 13454213.94 18075900.65 13737226.098 9411903.5904 9798589.059
          7443151.4108 12328558.777 12713060.601 17683005.423 18276202.379 18351305.024
          7510739.9881 7283322.3887 6782201.1176 11588607.254 12190905.244 17127792.38
          5219498.4096 7495781.3677 9536189.3683 9745421.7709 12284234.366 14783970.834
          17775706.406 14788611.283 20536645.304 9348462.1524 15065489.195 8131978.6511
          13974091.324 20023825.863 6812466.3499 12517002.742 18913200.241 24935454.314
          4288039.8418 1094178.1959 -7.5893625331e-08 765288.49804 3404796.4925 2617622.5356
          -3.4124208193e-08 -1.8264495047e-08 9.7746130618e-08 -1.8503153801e-08 1.351952793e-08 4.0059934061e-08
          636943.36354 722987.05075 2394390.8395 25119672.23 27525969.378 23214924.909
          25402295.815 27279128.987 21004602.526 22951498.807 24595865.48 25925820.053
          22274434.52 19300084.405 16267049.431 17667161.194 20492794.057 18445574.155
          12826622.371 11218097.303 14447351.736 9614883.1098 12598194.147 15592646.602
          10736304.317 7362587.6858 9397577.7257 4484836.0268 6272876.2737 3654265.9784
          5207974.9948 8055835.3782 6746613.1826 8793274.1398 6732250.9417 4777460.5941
          3931633.9162 5614343.1816 3082913.3857 2060460.6751 487073.80064 1494989.4977
          2271865.2223 2212445.0341 3564229.9929 2093287.2553 3380176.796 4944788.6146
          1027764.6934 289517.3463 1.0165445572e-07 281320.31503 999037.4771 943316.15762
          -8.0395134322e-08 -7.8778884252e-08 1.0206394233e-07 -7.4631840755e-08 8.4908214262e-08 9.9986075729e-08
          245336.0475 264622.46736 867350.26029 3.3985155789e-08 -4.7996181275e-08 370141.05964
          7.0093087269e-08 -5.2760749791e-08 1362268.9593 416363.29162 8.061558059e-08 -6.0238192273e-08
          437804.86383 1526025.5265 3056463.5149 3244201.0028 1488722.0205 3267455.7022
          4381800.5817 6461393.516 4880901.3681 8931537.8278 7132186.1094 5167726.5215
          3552390.1376 4024536.0951 5354721.6247 4052973.6351 5856446.8262 5830607.0113
          8056740.956 7543223.92 10086373.67 2188899.4341 1138695.1907 461655.90823
          1081664.9724 2321862.6496 2136175.105 343399.40775 160084.9388 835598.94467
          4465596.2151 5187401.7244 7145808.8213 5804348.5518 8352116.7961 9918390.5775
          2442389.697 811045.73051 3.6547123452e-08 877999.18891 2744718.2051 2979277.163
          -2.4883900307e-08 -2.4461386902e-08 2.8188117538e-08 -1.9550480513e-08 1.1926394134e-07 -2.6160327444e-07
          925709.47786 916654.19617 3141272.6864 175061.14818 95254.610784 38348.013217
          18360.47258 5279.4843566 3.8092082641e-09 -1.4314566278e-09 -2.967328404e-09 4.4315530481e-10
          1.7927535543e-09 -2.4358397952e-09 2.5978562894e-10 3.1149546642e-10 1.2079797094e-10 272539.70194
          382210.52168 499469.7595 93689.130033 64083.152779 1.1303749295e-08 626786.52111
          163773.02328 125558.01177 9.0325438435e-08 -1.8157566776e-09 -4.0462945987e-08 -1.542877612e-08
          -1.9096429537e-08 3.0607341211e-08 -8.1907755537e-09 1510360.3041 1485894.3678 610621.23545
          1418352.9432 575178.50552 521760.37193 120808.80468 144270.17119 4.3541120194e-08
          2908073.0614 4756895.3155 6872080.8631 4561455.548 2833842.6639 2684769.1051
          6474873.6029 5958421.4496 4264271.8058 568359.77278 153185.62373 138473.16397
          1.1624830327e-07 1.0175237242e-07 -8.7422267893e-08 -7.5181635199e-08 -5.6859010645e-08 8.7296261154e-08
          -4.9922263963e-08 600688.45026 617832.9 619632.94683 170609.66683 164015.31933
          1.2587480842e-07 605743.36042 169733.29521 172804.54133 6.9510929486e-08 1.7204052286e-07
          -1.0887605249e-07 -1.1147634332e-07 -9.915893118e-08 1.2106937283e-07 -9.6900768153e-08 1338785.7909
          1306924.527 620572.71231 1249747.4413 623845.43541 613725.30531 192029.49791
          181324.27653 1.3999005685e-07 2210282.2641 3031837.4349 3629385.5672 2744489.2282
          2073061.7041 1905562.0777 3845458.7949 3174301.1934 3153272.6438 2503928.2979
          2651781.607 2423333.7221 5281258.151 5727393.4853 4374848.7465 5780613.2976
          4564572.2837 4385447.0065 3436006.7403 3468834.4778 2586047.8146 6890263.6797
          8644214.3154 10507026.681 8811713.3386 7215039.7272 7093712.1531 10085452.944
          9046863.8788 8100330.5443 3892583.7893 2586258.3404 3109520.979 1533274.4192
          2030044.5762 2402752.5002 3203143.591 2394670.1359 1573714.9317 1268247.5569
          1940065.9649 996861.48281 674454.47538 171314.80271 515024.35105 545023.96204
          158303.45214 177305.05658 9.471410044e-08 1.0813918827e-07 -7.9899155966e-08 -8.9129809951e-08
          -9.8285225141e-08 1.1716862782e-07 -8.9923737649e-08 469448.64082 390239.97308 308958.79523
          114637.88811 137018.00683 7.9542260402e-08 230653.73916 68681.266664 91406.064877
          2.93977817e-08 4.9437237939e-08 -3.2096637769e-08 -4.7767838147e-08 -5.8798792209e-08 6.8551806116e-08
          -6.9080233987e-08 380256.717 289319.90319 183414.9977 210272.69043 141079.66748
          103996.3911 41570.508297 55055.430576 7.6609162289e-09 468371.64873 448327.78179
          315823.83082 277446.31496 331346.86767 215992.50813 150057.7047 46929.890123
          146535.84634 60261.414418 15762.102603 27846.032584 6.5013110957e-09 1.3128264534e-08
          -6.1635055019e-09 -1.1601402837e-08 -1.8515511552e-08 2.6737983495e-08 -1.9915569571e-08 25865.642912
          5590.1144689 -1.2712084871e-09 945.19110642 6228.6930573 -5.3754692549e-11 3.2928563432e-10
          5.6440270282e-10 -7.1636898194e-10 1.3027187764e-10 9.8721720076e-10 2.03774331e-11 1.7001481494e-10
          9.7996379244e-10 -2.254004642e-09 -1.5843707893e-09 1.146553381e-09 -2.0451066698e-10 91120.144202
          -2.088831101e-10 2.4804461838e-10 270843.92253 32894.064907 -1.3761201867e-09 8.8671580855e-11
          180367.69311 906017.02766 2515773.4594 1687770.7595 545545.29505 996576.03641
          5212183.8319 6902725.3888 3790237.0193 8339200.1185 4960160.7216 2503854.7019
          5876576.9619 8952052.6708 8019065.7451 12585410.991 11361745.105 15103116.032
          13355920.295 9930177.2245 11430034.439 6975151.7214 8060242.3527 9118401.7087
          11808611.515 10395839.202 14356730.904 12830925.039 16986836.72 15745334.96
          18328488.69 19292973.272 16335654.327 19513038.837 16901723.154 14159001.587
          21491127.151 24413462.507 26959272.712 24525631.592 22064536.227 21870886.222
          29089885.972 28084809.983 26574286.638 26222783.391 25329061.557 23845679.698
          33819190.558 37218537.273 33610097.227 38928880.743 36749336.572 38154724.151
          35057284.99 32249055.085 29855710.203 36060305.14 37322783.2 37444042.731
          38592787.35 38467045.298 39013231.494 36543540.048 35834126.401 37682510.071
          33426695.223 36206988.86 38089188.417 34960609.661 33189678.443 34734484.865
          30374979.513 31816425.63 27961993.616 28849515.468 32840070.817 29370970.801
          32220661.651 28954018.065 25314795.763 26838306.508 30221199.81 27300845.426
          22400546.169 19081512.19 23336978.202 23957342.683 19972939.461 24597721.995
          15241465.913 20122345.132 24924921.826 18331463.475 12564715.589 7291957.9014
          8315213.3888 13940338.883 9345020.0696 3769710.2152 1231225.3808 4444205.2355
          37685732.261 35240068.877 35834538.496 31484747.602 32180266.409 31614730.98
          35449907.572 32019792.649 27703361.051 28814764.239 32544881.02 28440033.703
          23701034.3 21972179.645 25750468.668 19996997.225 23521909.732 26418944.683
          18381066.212 11881266.614 17123940.823 6491057.8085 10942715.345 5914900.1356
          9848515.1513 15649060.826 13990233.91 13693817.181 8990241.1162 4850708.1569
          4151262.0964 7767320.2905 3434083.1595 2037670.7803 503420.05878 1664934.4745
          2667855.13 2486719.8488 5479788.3017 2187060.284 4870501.4491 8879181.2702
          998898.11813 228086.46197 9.2803778462e-08 221118.3186 931711.05627 800726.67617
          7.4947045664e-09 -2.0225436775e-09 -5.4365250095e-08 1.2242705156e-10 1.036348655e-08 99146.659319
          16096848.778 16734278.155 18887815.762 3.7637640277e-10 8.0369215178e-10 1.2031729739e-09
          3.2694196619e-09 7.1549711279e-12 7.1549711288e-12 5.1996224275e-10 1.7313032756e-10 2.3880517567e-09
          5.3292747558e-09 6.7627053352e-10 1.4256901827e-09 4.6986651443e-08 4.924007185e-08 4.1073691255e-08
          3.7634205623e-08 4.2272350329e-08 4.4656877066e-08 4.2871746267e-08 3.503049599e-08 1.43530058e-08
          1.4828000575e-08 1.2552918949e-08 1.2758404998e-08 4.2844747943e-08 6.1569584022e-08 6.0438766098e-08
          6.3899056001e-08 9.2416056954e-09 1.3133285788e-08 1.6510073408e-08 2.3706051309e-08 1.3467314228e-08
          1.4125428869e-08 1.5843849253e-08 1.7315378064e-08 1.1668938878e-08 3.3869756157e-09 3.0073053673e-09
          1.8896623504e-09 6.7418120915e-09 4.0351861748e-09 2.8954518336e-09 1.8845550097e-09 9.0104033158e-09
          6.4284040805e-09 5.0383773357e-09 3.5470311262e-09 7.2891956019e-09 1.1588027182e-08 1.6682841824e-08
          2.4680813343e-08 2.3901583087e-09 3.5289571641e-09 6.5651660025e-09 5.1469666789e-09 8.9937523106e-09
          1.2631079448e-08 1.9984401871e-08 1.5483579104e-08 3.3442568116e-08 2.8704169422e-08 2.3415292958e-08
          1.5867009752e-08 2.3246456555e-08 1.2318970434e-08 1.1427479296e-08 1.0518649256e-08 1.7479903623e-08
          1.4670730932e-08 1.3085190849e-08 1.1566439452e-08 6.5124030035e-08 6.456978517e-08 6.2517895381e-08
          6.1353573312e-08 3.2696297041e-08 4.0325361975e-08 4.3347599712e-08 3.9731678769e-08 1.8273417879e-08
          1.8652937836e-08 1.9813072354e-08 2.2706285189e-08 5.7712275504e-10 -5.2416794482e-10 2.392708832e-10
          2.128646592e-10 1.6691754909e-08 1.3810005353e-08 6.9421798785e-09 3.0944936259e-09 5.6688411289e-08
          4.6229585198e-08 4.2602826191e-08 2.3404053067e-08 8.7109697093e-08 7.9748667031e-08 7.5197007426e-08
          6.6683320617e-08 7.3738500371e-08 7.7186363362e-08 7.4110714688e-08 1.0227265626e-07 4.7804400768e-08
          5.2178385495e-08 6.009760118e-08 6.7735969406e-08 1.0811983458e-08 1.5911179028e-08 2.0959768044e-08
          3.7202275065e-08 1.0460614262e-09 4.5691228772e-10 1.0008167796e-10 6.4596180113e-12 6.4596180095e-12
          4.6385018341e-10 2.8172314318e-09 6.4159634976e-09 1.1307455498e-09 6.5540031562e-10 3.8012693856e-10
          1.5379513446e-10 -6.0346945338e-10 9.5242919795e-10 3.9629494608e-10 2.187139572e-10
        </DataArray>
      </PointData>
      <CellData>
      </CellData>
      <Points>
        <DataArray type="Float64" Name="Points" NumberOfComponents="3" format="ascii" RangeMin="0.85225478732" RangeMax="149.23163285">
          100 -100 0 100 -91.007049561 0
          92.286247253 -90.56880188 0 100 -82.014099121 0
          92.286247253 -81.57585144 0 84.572502136 -81.13760376 0
          100 -73.021148682 0 92.286247253 -72.582901001 0
          100 -64.028198242 0 92.286247253 -63.589950562 0
          84.572502136 -63.151699066 0 84.572502136 -72.14465332 0
          76.85874939 -71.70639801 0 76.85874939 -62.713451385 0
          69.144996643 -62.27519989 0 -100 -100 0
          -93.75 -100 0 -100 -95.125 0
          -87.5 -100 0 -93.75 -95.125 0
          -100 -90.25 0 -81.25 -100 0
          -87.5 -95.125 0 -75 -100 0
          -81.25 -95.125 0 -87.5 -90.25 0
          -93.75 -90.25 0 -100 -85.375 0
          -93.75 -85.375 0 -100 -80.5 0
          19.697799683 34.407501221 0 18.346025467 39.208175659 0
          13.599164963 37.485874176 0 16.994249344 44.008850098 0
          12.247389793 42.286548615 0 7.5005297661 40.564250946 0
          15.642475128 48.809524536 0 10.895614624 47.087226868 0
          14.290699959 53.610198975 0 9.5438404083 51.887901306 0
          4.7969799042 50.165599823 0 6.1487550735 45.364925385 0
          1.4018950462 43.642623901 0 0.050119999796 48.44329834 0
          -4.6967401505 46.721000671 0 39.773399353 29.825799942 0
          40.125526428 33.925323486 0 34.754501343 30.971225739 0
          40.477649689 38.024848938 0 35.106624603 35.07075119 0
          29.735599518 32.116649628 0 40.829776764 42.12437439 0
          35.458751678 39.170276642 0 41.181900024 46.223899841 0
          35.810874939 43.269798279 0 30.439849854 40.315700531 0
          30.087724686 36.216175079 0 24.7166996 33.262073517 0
          25.068824768 37.361598969 0 100 29.580499649 0
          100 33.981723785 0 95.840423584 33.981723785 0
          100 38.382949829 0 95.840423584 38.382949829 0
          91.680847168 38.382949829 0 100 42.784175873 0
          95.840423584 42.784175873 0 100 47.185398102 0
          95.840423584 47.185398102 0 91.680847168 47.185398102 0
          91.680847168 42.784175873 0 87.521278381 42.784175873 0
          87.521278381 47.185398102 0 83.361701965 47.185398102 0
          -100 -9.5616903305 0 -93.897796631 -4.5374426842 0
          -100 -2.0038924217 0 -87.795600891 0.48680499196 0
          -93.897796631 3.0203549862 0 -100 5.5539050102 0
          -81.693397522 5.5110526085 0 -87.795600891 8.0446023941 0
          -75.591201782 10.535300255 0 -81.693397522 13.068849564 0
          -87.795600891 15.602399826 0 -93.897796631 10.578152657 0
          -100 13.111702919 0 -93.897796631 18.135950089 0
          -100 20.669500351 0 -94.249649048 -13.005267143 0
          -88.499298096 -16.44884491 0 -88.147453308 -7.9810199738 0
          -82.748947144 -19.892421722 0 -82.397102356 -11.42459774 0
          -76.998596191 -23.336000443 0 -76.646751404 -14.868174553 0
          -76.294898987 -6.4003500938 0 -82.045249939 -2.9567725658 0
          -75.94304657 2.0674750805 0 0 -100 0
          6.25 -100 0 -0.88223999739 -90.721199036 0
          12.5 -100 0 5.3677601814 -90.721199036 0
          -1.7644799948 -81.442398071 0 18.75 -100 0
          11.617759705 -90.721199036 0 25 -100 0
          17.867759705 -90.721199036 0 10.735520363 -81.442398071 0
          4.485519886 -81.442398071 0 -2.6467199326 -72.163597107 0
          3.6032800674 -72.163597107 0 -3.5289599895 -62.884799957 0
          45.184101105 -27.310800552 0 47.674449921 -19.016311646 0
          42.655548096 -19.250947952 0 50.164798737 -10.721824646 0
          45.145900726 -10.956459999 0 40.126998901 -11.191095352 0
          52.655151367 -2.4273374081 0 47.636249542 -2.6619725227 0
          55.145500183 5.8671498299 0 50.126598358 5.6325149536 0
          45.107700348 5.3978800774 0 42.617351532 -2.896607399 0
          37.598449707 -3.1312425137 0 40.088798523 5.1632452011 0
          35.069900513 4.928609848 0 51.118225098 -27.058950424 0
          57.052349091 -26.807100296 0 53.608573914 -18.764463425 0
          62.986476898 -26.555250168 0 59.542701721 -18.512613297 0
          68.920600891 -26.30340004 0 65.476821899 -18.260763168 0
          62.033050537 -10.218125343 0 56.098926544 -10.469975471 0
          58.58927536 -2.1754875183 0 100 -28.056400299 0
          100 -20.85178566 0 94.981124878 -21.393835068 0
          100 -13.647171974 0 94.981124878 -14.189220428 0
          89.962249756 -14.731269836 0 100 -6.4425573349 0
          94.981124878 -6.984606266 0 100 0.76205700636 0
          94.981124878 0.22000774741 0 89.962249756 -0.32204151154 0
          89.962249756 -7.526655674 0 84.943374634 -8.0687046051 0
          84.943374634 -0.86409074068 0 79.924499512 -1.4061399698 0
          -100 -61 0 -93.009422302 -58.013774872 0
          -100 -54.570201874 0 -86.018852234 -55.027549744 0
          -93.009422302 -51.583976746 0 -100 -48.140399933 0
          -79.028274536 -52.041324615 0 -86.018852234 -48.597751617 0
          -72.037696838 -49.055099487 0 -79.028274536 -45.611526489 0
          -86.018852234 -42.167949677 0 -93.009422302 -45.154174805 0
          -100 -41.710601807 0 -93.009422302 -38.724376678 0
          -100 -35.280799866 0 -93.75 -65.875 0
          -87.5 -70.75 0 -86.759422302 -62.888774872 0
          -81.25 -75.625 0 -80.509422302 -67.763778687 0
          -75 -80.5 0 -74.259422302 -72.638778687 0
          -73.518852234 -64.777549744 0 -79.768852234 -59.902549744 0
          -72.778274536 -56.916324615 0 -50 -100 0
          -43.75 -100 0 -49.259426117 -92.138778687 0
          -37.5 -100 0 -43.009426117 -92.138778687 0
          -48.518848419 -84.277549744 0 -31.25 -100 0
          -36.759426117 -92.138778687 0 -25 -100 0
          -30.50942421 -92.138778687 0 -36.018848419 -84.277549744 0
          -42.268848419 -84.277549744 0 -47.778274536 -76.41632843 0
          -41.528274536 -76.41632843 0 -47.037700653 -68.555099487 0
          -29.091299057 59.034500122 0 -31.248125076 64.155174255 0
          -37.954898834 64.155174255 0 -33.404949188 69.275848389 0
          -40.111724854 69.275848389 0 -46.818500519 69.275848389 0
          -35.561775208 74.396522522 0 -42.268550873 74.396522522 0
          -37.718601227 79.517196655 0 -44.425376892 79.517196655 0
          -51.132148743 79.517196655 0 -48.975326538 74.396522522 0
          -55.682098389 74.396522522 0 -57.838924408 79.517196655 0
          -64.545700073 79.517196655 0 -22.640527725 60.055648804 0
          -16.189754486 61.0768013 0 -24.797351837 65.176322937 0
          -9.7389822006 62.097949982 0 -18.346580505 66.197471619 0
          -3.2882099152 63.119098663 0 -11.895807266 67.21862793 0
          -20.503404617 71.318153381 0 -26.954177856 70.29699707 0
          -29.111001968 75.417671204 0 22.514900208 67.203796387 0
          19.700550079 71.303321838 0 13.907299995 71.303321838 0
          16.886199951 75.40284729 0 11.092949867 75.40284729 0
          5.2996997833 75.40284729 0 14.071849823 79.502372742 0
          8.2785997391 79.502372742 0 11.257499695 83.601898193 0
          5.4642500877 83.601898193 0 -0.32899999619 83.601898193 0
          2.4853498936 79.502372742 0 -3.3078999519 79.502372742 0
          -6.1222500801 83.601898193 0 -11.915499687 83.601898193 0
          28.040950775 66.902099609 0 33.567001343 66.600402832 0
          25.226600647 71.001625061 0 39.093048096 66.298698425 0
          30.752649307 70.699928284 0 44.619098663 65.997001648 0
          36.278701782 70.398223877 0 27.938299179 74.799453735 0
          22.412250519 75.101150513 0 19.597900391 79.200675964 0
          27.181650162 61.958824158 0 31.848400116 56.713848114 0
          32.707698822 61.657123566 0 36.515148163 51.468875885 0
          37.374450684 56.412151337 0 42.04119873 51.167175293 0
          42.900501251 56.110450745 0 38.23374939 61.355426788 0
          43.759799957 61.053726196 0 63.463600159 26.018199921 0
          67.578826904 26.366725922 0 63.419223785 30.767950058 0
          71.69405365 26.715250015 0 67.534446716 31.116474152 0
          63.374851227 35.517700195 0 75.809272766 27.063774109 0
          71.649673462 31.465000153 0 79.924499512 27.41230011 0
          75.764900208 31.813524246 0 71.605300903 36.214748383 0
          67.490074158 35.866226196 0 63.330474854 40.267448425 0
          67.445701599 40.615974426 0 63.28609848 45.01720047 0
          66.723297119 64.79019928 0 64.632896423 69.191421509 0
          58.382900238 69.191421509 0 62.542499542 73.592651367 0
          56.292499542 73.592651367 0 50.042499542 73.592651367 0
          60.452098846 77.993873596 0 54.202098846 77.993873596 0
          58.361698151 82.395103455 0 52.111698151 82.395103455 0
          45.861698151 82.395103455 0 47.952098846 77.993873596 0
          41.702098846 77.993873596 0 39.611698151 82.395103455 0
          33.361698151 82.395103455 0 70.882896423 64.79019928 0
          75.042503357 64.79019928 0 68.792503357 69.191421509 0
          79.202102661 64.79019928 0 72.952102661 69.191421509 0
          83.361701965 64.79019928 0 77.111701965 69.191421509 0
          70.861701965 73.592651367 0 66.702102661 73.592651367 0
          64.611701965 77.993873596 0 100 64.79019928 0
          100 69.191421509 0 93.75 69.191421509 0
          100 73.592651367 0 93.75 73.592651367 0
          87.5 73.592651367 0 100 77.993873596 0
          93.75 77.993873596 0 100 82.395103455 0
          93.75 82.395103455 0 87.5 82.395103455 0
          87.5 77.993873596 0 81.25 77.993873596 0
          81.25 82.395103455 0 75 82.395103455 0
          -100 50.900798798 0 -91.136421204 51.917499542 0
          -100 57.038200378 0 -82.272850037 52.934200287 0
          -91.136421204 58.054901123 0 -100 63.175598145 0
          -73.40927124 53.950901031 0 -82.272850037 59.071601868 0
          -64.545700073 54.967601776 0 -73.40927124 60.088298798 0
          -82.272850037 65.208999634 0 -91.136421204 64.192298889 0
          -100 69.31300354 0 -91.136421204 70.329696655 0
          -100 75.450401306 0 -90.960250854 47.057723999 0