<?xml version="1.0"?>
<VTKFile type="UnstructuredGrid" version="0.1" byte_order="LittleEndian" compressor="vtkZLibDataCompressor">
  <UnstructuredGrid>
    <Piece NumberOfPoints="625" NumberOfCells="1184">
      <PointData>
        <DataArray type="Float64" Name="u" format="ascii" RangeMin="-1.167943462e-07" RangeMax="47392093.752">
          485240.87817 1513651.5982 1290171.8758 3471292.3126 3115319.247 2305837.2367
          6537068.8302 6048591.3633 10711196.517 10110304.295 8583818.7027 4872809.9848
          3295333.8976 6433386.9277 4094378.848 1719885.3034 438534.29606 1299354.0264
          8.2085877631e-08 303922.88252 -4.9369396414e-08 4.9708349005e-08 162485.73328 815931.25089
          374289.46654 -7.1170429267e-08 1.0823681422e-07 -8.8480522712e-08 543664.22985 2030378.6473
          614899.1522 1.2626621626e-07 -1.0010590803e-07 1.3746097942e-07 -1.0545393492e-07 2.3148197178e-10
          7.3378948142e-10 -1.3599652532e-09 2504.8310807 3.8186198939e-09 -9.9333960426e-09 87773.742675
          52896.27056 1.9574754597e-08 -2.6953314746e-08 4319556.9203 2127437.5246 4812144.7284
          637908.74728 2261851.1547 4906223.227 1.4058297377e-07 649604.53089 2219102.1317
          4644209.9303 7611083.5172 12121418.776 8334212.5756 17312873.89 12834628.277
          22752321.742 17713505.491 12609019.046 8499951.601 7998171.8154 21387906.763
          15760916.194 18772451.545 10663272.111 13313585.774 15128816.373 11521647.815
          10807653.857 16378354.291 9136300.659 14294217.493 20240790.247 6820366.9311
          11338687.796 16708896.717 22437544.722 32724397.174 37740418.83 37592550.923
          41979526.616 42130874.595 40550395.1 44984921.49 45430322.386 46617698.559
          47156879.046 45530638.187 43906259.89 40432514.77 41920984.23 36709177.568
          35364274.316 32305139.127 37176765.101 27928977.956 32578264.895 27145738.569
          30404450.866 35891549.707 32250084.428 26451886.313 29243411.354 30439336.071
          23745673.541 22704325.817 17259282.517 15804116.667 21462882.948 20767639.5
          27246186.771 26599372.879 24588901.291 3464609.1789 5122164.9225 2384329.1541
          6367982.9369 6913354.3727 3602000.9397 3221176.9832 1305655.0126 1537026.4919
          480293.99661 368971.46087 159965.34501 825992.45545 4.8039246247e-08 308842.0494
          -4.9926113416e-08 8.296365145e-08 457021.97184 1347349.0705 1809967.6821 -2.6386889187e-08
          1.7880857093e-08 -9.3591846955e-09 50420.014587 84070.503553 2280.1468336 3.4072576357e-09
          -1.1737868258e-09 7.6174890708e-10 2.3641404759e-10 -1.0329773829e-07 1.3282234854e-07 -9.2561670749e-08
          572576.82849 1.1302934503e-07 -7.379373616e-08 -5.137584937e-08 -7.6840249376e-08 8.5380217559e-08
          -9.8141915912e-08 1.1796740574e-07 474147.72452 -1.1200928679e-07 1.4173359153e-07 -1.167943462e-07
          1.5410447842e-07 690714.27016 605377.53603 1894844.5864 2275694.8674 4565327.5882
          3591362.6168 2436296.4529 1387745.4581 1320112.0147 841551.48298 480288.35415
          373100.45687 162779.48631 316421.23974 4.9191796292e-08 1537241.687 3260684.7324
          3602835.8542 5254932.2806 7121224.2077 9416526.096 6457316.5549 6915298.3701
          10982675.166 11525167.588 84062.659566 2278.6978721 51136.216924 7.6175403078e-10
          3.635233273e-09 2.3647430397e-10 -1.2336344484e-09 -9.5827504211e-09 1.8432954764e-08 -2.6999908547e-08
          25021178.942 24003168.364 19283325.941 21083501.482 17720856.407 13590071.311
          16683291.269 14806833.815 11928785.946 8535989.5837 5205458.2462 5427557.8559
          9291887.0526 5205425.5341 9291855.8808 4565262.2921 8535901.0219 13589976.975
          14168397.602 19283256.916 2275679.2823 2477861.4912 690712.57051 2477868.8096
          720153.02164 1.5410431678e-07 16680744.338 10980610.196 21082136.695 14805598.697
          9415543.0971 24002747.508 17720378.499 11928351.8 7120892.261 -5.1375322682e-08
          -2.6999571425e-08 4.9191717579e-08 -9.5825790792e-09 1.8431392326e-08 162778.19147 -1.2335677253e-09
          3.6349985707e-09 51135.165079 373094.2796 1320112.6764 2436281.89 841550.7823
          3591321.3161 1387732.6271 1894813.7198 474140.68609 316419.68494 8.5379298931e-08
          5254574.7476 3260374.1594 6456314.4367 -1.1200887919e-07 -9.8141002562e-08 1.4173340355e-07
          -7.6839247734e-08 1.1796506274e-07 605370.01399 30156126.366 27721100.932 34089122.146
          23186985.24 29958555.619 36358870.288 41742256.088 43490414.276 39535801.468
          41742545.291 39535916.273 36709700.986 36359166.519 34089265.165 35528824.53
          30156170.567 41921485.609 45548572.573 45531064.503 45548380.963 47392093.752
          47157140.286 17262543.094 23188960.405 23748230.972 27721847.011 29959700.276
          30440897.081 1305640.8952 3221685.2869 2384352.6444 6369553.0236 10810823.628
          9138607.3685 5123025.0415 3464669.9791 6821530.2488 4319631.5001 1810021.2541
          457035.86285 1347367.6814 8.2965232058e-08 308844.54942 -4.9926687866e-08 4.8038695189e-08
          159960.117 825991.5464 368957.05085 -7.3795652876e-08 1.1303433706e-07 -9.2563961567e-08
          572589.21425 2127471.5205 637922.43827 1.3282335665e-07 -1.0330003789e-07 1.4058661744e-07
          -1.0545653115e-07 -2.638609285e-08 -9.3580819258e-09 1.7878039633e-08 -1.1732890547e-09 3.405384761e-09
          50414.623813 4094447.0596 2030411.5578 4644351.6548 614913.17648 2219173.1952
          4906388.4423 1.3746467922e-07 649624.5749 2261921.4626 4812285.0982 7998401.3037
          12609402.323 8500227.0067 17714060.264 12835056.263 22753042.473 17313448.184
          12121816.584 8334492.4336 7611313.888 22439834.597 16710897.187 20244244.201
          11340296.551 14297152.787 16382252.972 10714439.924 10113256.574 15132419.077
          8585982.3918 13316333.712 18775692.329 6434484.0481 10664803.998 15762849.072
          21390153.13 40433232.91 43906939.264 40551279.918 45430868.186 44985230.206
          41980151.856 42131681.173 37593530.79 37741299.132 32725368.761 32251096.62
          30405413.307 35892538.135 27146602.111 32579188.873 27929778.125 32305931.578
          37177636.156 35364975.887 24591080.221 26601364.428 27247907.191 21465348.884
          20770556.37 15807139.072 22707419.702 29245355.728 26454089.194 3295386.1758
          4873624.7827 2305857.2734 6050080.2014 6538904.0677 3472100.2386 3115812.0863
          1290159.726 1513866.5758 485236.20322 374275.22601 162480.22377 815928.53557
          4.9707292069e-08 303923.5359 -4.9369515519e-08 8.2086337348e-08 438544.67966 1299366.4637
          1719930.0645 -2.6952332578e-08 1.9571824e-08 -9.9322549741e-09 52890.80655 87766.060193
          2503.4218886 3.8167163339e-09 -1.3594557757e-09 7.3379805992e-10 2.3154056952e-10 -1.0010808043e-07
          1.2626693843e-07 -8.8482367524e-08 543674.31583 1.0824039085e-07 -7.1171702242e-08 1298748.8712
          3134798.3371 2332363.7074 6080075.5403 10146095.643 8624608.7662 4916150.2568
          3326826.3667 6442620.1272 4063449.1289 1730971.2355 446133.09709 1319287.2331
          8.45110927e-08 309311.79664 -5.0464194332e-08 5.0806947507e-08 164427.63743 826166.28318
          376863.56572 -7.2380422755e-08 1.1084783684e-07 -8.7976837535e-08 542814.99723 1986098.2155
          589820.43009 1.2455700144e-07 -9.5999770395e-08 1.2835305538e-07 -9.8218913196e-08 -1.3974506659e-09
          3.9646064118e-09 -1.0091904192e-08 53329.677854 1.9943426024e-08 -2.7466142935e-08 4063299.1935
          1986038.4018 4458853.325 589806.59209 2091354.7514 4573983.1673 1.2835092639e-07
          601941.52281 2091382.7058 4458956.7362 7437710.3807 11661473.214 7879827.9514
          16424471.23 11997233.003 21375895.269 16424274.884 11661214.113 7879731.6293
          7437485.517 20647233.803 15431286.173 18615623.674 10569278.226 13301486.642
          15146653.071 10144159.491 15144278.516 8623636.4148 13300251.905 18614224.465
          6442223.5942 10568735.173 15430647.432 20646614.776 25826099.221 29457341.136
          24133372.086 31788939.498 26416630.728 20722982.393 20724944.869 26418031.51
          31789773.856 29457940.334 24134390.398 25826397.162 3326726.9989 4915761.5478
          2332319.736 6079101.5414 3134478.7179 1298739.299 376855.55486 164425.14912
          826157.14657 5.0806545191e-08 309306.56576 -5.046305699e-08 8.4509164781e-08 446118.83222
          1319254.7276 1730907.2318 -2.7465590644e-08 1.9941860857e-08 -1.0091688781e-08 53328.543122
          3.9643650784e-09 -1.3973838645e-09 -9.5997664131e-08 1.2455287226e-07 -8.7973896178e-08 542794.78946
          1.1084330235e-07 -7.2378096027e-08 45263455.497 43457495.005 43118620.148 41075490.722
          40725829.18 37987141.318 37737561.299 36662492.094 39578530.183 34918172.925
          43118290.887 39577877.215 34917297.32 36661834.825 40725482.637 37737208.092
          26019579.688 30521783.319 30277668.215 34583827.324 34311419.672 33342423.114
          30278004.202 33343064.623 34311769.739 4.7754041286e-08 6.277583665e-08 7.4154455338e-08
          8.0778624361e-08 1.3724564988e-09 6.2400989552e-09 1.6457387584e-08 3.1225971434e-08 3.1730112586e-08
          1.6376917719e-08 6.0760110619e-09 1.3048556056e-09 8.1850598787e-08 7.6705108661e-08 6.5386005733e-08
          4.9364117868e-08 5.1261233287e-08 6.8924527586e-08 8.2368104422e-08 8.9559063375e-08 1.3217486014e-09
          6.1750013575e-09 1.6711435189e-08 3.2601087227e-08 3.2600766918e-08 1.6711338515e-08 6.1749634125e-09
          1.3217817021e-09 8.9558846913e-08 8.2367555713e-08 6.8923861503e-08 5.1260664429e-08 4.936495675e-08
          6.5387470764e-08 7.6707017901e-08 8.1852622935e-08 3.173021997e-08 1.6376519227e-08 6.0756371565e-09
          1.3046700218e-09 3.1225902326e-08 1.6456928831e-08 6.2397160454e-09 1.3722707727e-09 8.0780594738e-08
          7.4156196398e-08 6.2777030513e-08 4.7754599948e-08 4.8302044454e-08 6.2544336536e-08 7.2094961224e-08
          7.6617748285e-08 1.3826579269e-09 6.3060792544e-09 1.6689825423e-08 3.1724279716e-08 3.1723578092e-08
          1.6689582925e-08 6.3060067673e-09 1.3826874742e-09 7.6617031734e-08 7.209323414e-08 6.2542469922e-08
          4.830068522e-08
        </DataArray>
      </PointData>
      <CellData>
      </CellData>
      <Points>
        <DataArray type="Float64" Name="Points" NumberOfComponents="3" format="ascii" RangeMin="0" RangeMax="141.69730061">
          -75 -75 0 -68.751953125 -68.75 0
          -75 -62.5 0 -62.503898621 -62.5 0
          -68.751953125 -56.25 0 -75 -50 0
          -56.255851746 -56.25 0 -62.503898621 -50 0
          -50.007801056 -50 0 -56.255851746 -43.75 0
          -62.503898621 -37.5 0 -68.751953125 -43.75 0
          -75 -37.5 0 -68.751953125 -31.25 0
          -75 -25 0 -81.25 -31.25 0
          -87.5 -37.5 0 -81.25 -43.75 0
          -93.75 -43.75 0 -87.5 -50 0
          -100 -50 0 -93.75 -56.25 0
          -87.5 -62.5 0 -81.25 -56.25 0
          -81.25 -68.75 0 -100 -37.5 0
          -93.75 -31.25 0 -100 -25 0
          -87.5 -25 0 -81.25 -18.75 0
          -87.5 -12.5 0 -93.75 -18.75 0
          -100 -12.5 0 -93.75 -6.25 0
          -100 0 0 -100 -100 0
          -93.75 -93.75 0 -100 -87.5 0
          -87.5 -87.5 0 -93.75 -81.25 0
          -100 -75 0 -81.25 -81.25 0
          -87.5 -75 0 -93.75 -68.75 0
          -100 -62.5 0 -75 25 0
          -81.25 18.75 0 -75 12.5 0
          -87.5 12.5 0 -81.25 6.25 0
          -75 0 0 -93.75 6.25 0
          -87.5 0 0 -81.25 -6.25 0
          -75 -12.5 0 -68.75 -18.75 0
          -62.5 -12.5 0 -68.75 -6.25 0
          -56.25 -6.25 0 -62.5 0 0
          -50 0 0 -56.25 6.25 0
          -62.5 12.5 0 -68.75 6.25 0
          -68.75 18.75 0 -50.00194931 -12.5 0
          -56.25194931 -18.75 0 -50.003898621 -25 0
          -62.50194931 -25 0 -56.253898621 -31.25 0
          -50.005851746 -37.5 0 -50.007801056 50 0
          -56.255851746 43.75 0 -50.005851746 37.5 0
          -62.503898621 37.5 0 -56.253898621 31.25 0
          -50.003898621 25 0 -68.751953125 31.25 0
          -62.50194931 25 0 -56.25194931 18.75 0
          -50.00194931 12.5 0 -25 -25 0
          -18.75 -18.75 0 -25 -12.5 0
          -12.5 -12.5 0 -18.75 -6.25 0
          -25 0 0 -6.25 -6.25 0
          -12.5 0 0 -0 0 0
          -6.25 6.25 0 -12.5 12.5 0
          -18.75 6.25 0 -25 12.5 0
          -18.75 18.75 0 -25 25 0
          -31.25 18.75 0 -37.5 12.5 0
          -31.25 6.25 0 -43.75 6.25 0
          -37.5 0 0 -43.75 -6.25 0
          -37.5 -12.5 0 -31.25 -6.25 0
          -31.25 -18.75 0 -43.75194931 18.75 0
          -37.50194931 25 0 -31.25194931 31.25 0
          -37.503898621 37.5 0 -43.753898621 31.25 0
          -43.755851746 43.75 0 -43.755851746 -43.75 0
          -37.503898621 -37.5 0 -43.753898621 -31.25 0
          -31.25194931 -31.25 0 -37.50194931 -25 0
          -43.75194931 -18.75 0 -75 37.5 0
          -68.751953125 43.75 0 -75 50 0
          -62.503898621 50 0 -56.255851746 56.25 0
          -62.503898621 62.5 0 -68.751953125 56.25 0
          -75 62.5 0 -68.751953125 68.75 0
          -75 75 0 -81.25 68.75 0
          -87.5 62.5 0 -81.25 56.25 0
          -93.75 56.25 0 -87.5 50 0
          -100 50 0 -93.75 43.75 0
          -87.5 37.5 0 -81.25 43.75 0
          -81.25 31.25 0 -100 62.5 0
          -93.75 68.75 0 -100 75 0
          -87.5 75 0 -81.25 81.25 0
          -87.5 87.5 0 -93.75 81.25 0
          -100 87.5 0 -93.75 93.75 0
          -100 100 0 -100 12.5 0
          -93.75 18.75 0 -100 25 0
          -87.5 25 0 -93.75 31.25 0
          -100 37.5 0 50 100 0
          37.5 100 0 43.75 93.75 0
          25 100 0 31.25 93.75 0
          37.5 87.5 0 12.5 100 0
          18.75 93.75 0 0 100 0
          6.25 93.75 0 12.5 87.5 0
          25 87.5 0 31.25 81.25 0
          18.75 81.25 0 25 75 0
          37.5 75 0 50 75 0
          43.75 81.25 0 62.5 75 0
          56.25 81.25 0 75 75 0
          68.75 81.25 0 62.5 87.5 0
          50 87.5 0 56.25 93.75 0
          68.75 68.75 0 56.25 68.75 0
          62.5 62.5 0 43.75 68.75 0
          31.25 68.75 0 37.5 62.5 0
          50 62.5 0 56.25 56.25 0
          43.75 56.25 0 50 50 0
          81.25 81.25 0 87.5 87.5 0
          75 87.5 0 93.75 93.75 0
          81.25 93.75 0 100 100 0
          87.5 100 0 75 100 0
          68.75 93.75 0 62.5 100 0
          -0 50 0 12.5 50 0
          6.25 56.25 0 25 50 0
          18.75 56.25 0 12.5 62.5 0
          37.5 50 0 31.25 56.25 0
          25 62.5 0 18.75 68.75 0
          12.5 75 0 0 75 0
          6.25 68.75 0 -12.5 75 0
          -6.25 68.75 0 -25 75 0
          -18.75 68.75 0 -12.5 62.5 0
          0 62.5 0 -6.25 56.25 0
          -18.75 81.25 0 -6.25 81.25 0
          -12.5 87.5 0 6.25 81.25 0
          0 87.5 0 -6.25 93.75 0
          -37.505851746 50 0 -43.755851746 56.25 0
          -25.003900528 50 0 -31.253900528 56.25 0
          -37.503898621 62.5 0 -12.501950264 50 0
          -18.75194931 56.25 0 -25.00194931 62.5 0
          -31.25194931 68.75 0 -50 100 0
          -62.5 100 0 -56.25 93.75 0
          -75 100 0 -68.75 93.75 0
          -62.5 87.5 0 -87.5 100 0
          -81.25 93.75 0 -75 87.5 0
          -68.75 81.25 0 -62.5 75 0
          -50 75 0 -56.25 81.25 0
          -37.5 75 0 -43.75 81.25 0
          -31.25 81.25 0 -37.5 87.5 0
          -50 87.5 0 -43.75 93.75 0
          -43.75194931 68.75 0 -56.25194931 68.75 0
          -50.003898621 62.5 0 -12.5 100 0
          -25 100 0 -18.75 93.75 0
          -37.5 100 0 -31.25 93.75 0
          -25 87.5 0 -6.25 43.75 0
          -18.75194931 43.75 0 -12.5 37.5 0
          -31.253900528 43.75 0 -25.00194931 37.5 0
          -18.75 31.25 0 -12.5 25 0
          0 25 0 -6.25 31.25 0
          12.5 25 0 6.25 31.25 0
          25 25 0 18.75 31.25 0
          12.5 37.5 0 0 37.5 0
          6.25 43.75 0 18.75 18.75 0
          6.25 18.75 0 12.5 12.5 0
          -6.25 18.75 0 0 12.5 0
          6.25 6.25 0 43.75 43.75 0
          31.25 43.75 0 37.5 37.5 0
          18.75 43.75 0 25 37.5 0
          31.25 31.25 0 75 62.5 0
          68.75 56.25 0 75 50 0
          62.5 50 0 56.25 43.75 0
          62.5 37.5 0 68.75 43.75 0
          75 37.5 0 68.75 31.25 0
          75 25 0 81.25 31.25 0
          87.5 37.5 0 81.25 43.75 0
          93.75 43.75 0 87.5 50 0
          100 50 0 93.75 56.25 0
          87.5 62.5 0 81.25 56.25 0
          81.25 68.75 0 100 37.5 0
          93.75 31.25 0 100 25 0
          87.5 25 0 81.25 18.75 0
          87.5 12.5 0 93.75 18.75 0
          100 12.5 0 93.75 6.25 0
          100 -0 0 100 62.5 0
          100 75 0 93.75 68.75 0
          100 87.5 0 93.75 81.25 0
          87.5 75 0 75 -25 0
          81.25 -18.75 0 75 -12.5 0
          87.5 -12.5 0 81.25 -6.25 0
          75 0 0 93.75 -6.25 0
          87.5 0 0 81.25 6.25 0
          75 12.5 0 68.75 18.75 0
          62.5 12.5 0 68.75 6.25 0
          56.25 6.25 0 62.5 0 0
          50 0 0 56.25 -6.25 0
          62.5 -12.5 0 68.75 -6.25 0
          68.75 -18.75 0 50 12.5 0
          56.25 18.75 0 50 25 0
          62.5 25 0 56.25 31.25 0
          50 37.5 0 50 -50 0
          56.25 -43.75 0 50 -37.5 0
          62.5 -37.5 0 56.25 -31.25 0
          50 -25 0 68.75 -31.25 0
          62.5 -25 0 56.25 -18.75 0
          50 -12.5 0 25 12.5 0
          18.75 6.25 0 25 0 0
          12.5 0 0 6.25 -6.25 0
          12.5 -12.5 0 18.75 -6.25 0
          25 -12.5 0 18.75 -18.75 0
          25 -25 0 31.25 -18.75 0
          37.5 -12.5 0 31.25 -6.25 0
          43.75 -6.25 0 37.5 0 0
          43.75 6.25 0 37.5 12.5 0
          31.25 6.25 0 31.25 18.75 0
          43.75 -18.75 0 37.5 -25 0
          31.25 -31.25 0 37.5 -37.5 0
          43.75 -31.25 0 43.75 -43.75 0
          43.75 31.25 0 37.5 25 0
          43.75 18.75 0 75 -37.5 0
          68.75 -43.75 0 75 -50 0
          62.5 -50 0 56.25 -56.25 0
          62.5 -62.5 0 68.75 -56.25 0
          75 -62.5 0 68.75 -68.75 0
          75 -75 0 81.25 -68.75 0
          87.5 -62.5 0 81.25 -56.25 0
          93.75 -56.25 0 87.5 -50 0
          100 -50 0 93.75 -43.75 0
          87.5 -37.5 0 81.25 -43.75 0
          81.25 -31.25 0 100 -62.5 0
          93.75 -68.75 0 100 -75 0
          87.5 -75 0 81.25 -81.25 0
          87.5 -87.5 0 93.75 -81.25 0
          100 -87.5 0 93.75 -93.75 0
          100 -100 0 100 -12.5 0
          93.75 -18.75 0 100 -25 0
          87.5 -25 0 93.75 -31.25 0
          100 -37.5 0 62.5 -75 0
          56.25 -68.75 0 50 -75 0
          50 -62.5 0 43.75 -56.25 0
          37.5 -62.5 0 43.75 -68.75 0
          37.5 -75 0 31.25 -68.75 0
          25 -75 0 31.25 -81.25 0
          37.5 -87.5 0 43.75 -81.25 0
          43.75 -93.75 0 50 -87.5 0
          50 -100 0 56.25 -93.75 0
          62.5 -87.5 0 56.25 -81.25 0
          68.75 -81.25 0 37.5 -100 0
          31.25 -93.75 0 25 -100 0
          25 -87.5 0 18.75 -81.25 0
          12.5 -87.5 0 18.75 -93.75 0
          12.5 -100 0 6.25 -93.75 0
          0 -100 0 87.5 -100 0
          81.25 -93.75 0 75 -100 0
          75 -87.5 0 68.75 -93.75 0
          62.5 -100 0 -25 -75 0
          -18.75 -81.25 0 -12.5 -75 0
          -12.5 -87.5 0 -6.25 -81.25 0
          0 -75 0 -6.25 -93.75 0
          0 -87.5 0 6.25 -81.25 0
          12.5 -75 0 18.75 -68.75 0
          12.5 -62.5 0 6.25 -68.75 0
          6.25 -56.25 0 0 -62.5 0
          -0 -50 0 -6.25 -56.25 0
          -12.5 -62.5 0 -6.25 -68.75 0
          -18.75 -68.75 0 12.5 -50 0
          18.75 -56.25 0 25 -50 0
          25 -62.5 0 31.25 -56.25 0
          37.5 -50 0 -43.755851746 -56.25 0
          -37.505851746 -50 0 -37.503898621 -62.5 0
          -31.253900528 -56.25 0 -25.003900528 -50 0
          -31.25194931 -68.75 0 -25.00194931 -62.5 0
          -18.75194931 -56.25 0 -12.501950264 -50 0
          -6.25 -43.75 0 -12.5 -37.5 0
          -18.75194931 -43.75 0 -18.75 -31.25 0
          -25.00194931 -37.5 0 -31.253900528 -43.75 0
          31.25 -43.75 0 25 -37.5 0
          18.75 -31.25 0 12.5 -37.5 0
          18.75 -43.75 0 6.25 -43.75 0
          -37.5 -75 0 -43.75194931 -68.75 0
          -50 -75 0 -50.003898621 -62.5 0
          -56.25194931 -68.75 0 -62.5 -75 0
          -68.75 -81.25 0 -62.5 -87.5 0
          -56.25 -81.25 0 -56.25 -93.75 0
          -50 -87.5 0 -50 -100 0
          -43.75 -93.75 0 -37.5 -87.5 0
          -43.75 -81.25 0 -31.25 -81.25 0
          -62.5 -100 0 -68.75 -93.75 0
          -75 -100 0 -75 -87.5 0
          -81.25 -93.75 0 -87.5 -100 0
          -12.5 -100 0 -18.75 -93.75 0
          -25 -100 0 -25 -87.5 0
          -31.25 -93.75 0 -37.5 -100 0
          0 -6.25 0 0 -12.5 0
          6.25 -12.5 0 0 -18.75 0
          6.25 -18.75 0 -0 -25 0
          6.25 -25 0 12.5 -25 0
          12.5 -18.75 0 18.75 -25 0
          -6.25 -12.5 0 -12.5 -18.75 0
          -18.75 -25 0 -12.5 -25 0
          -6.25 -18.75 0 -6.25 -25 0
          0 -43.75 0 0 -37.5 0
          -6.25 -37.5 0 0 -31.25 0
          -6.25 -31.25 0 -12.5 -31.25 0
          6.25 -37.5 0 12.5 -31.25 0
          6.25 -31.25 0 -106.25 -43.75 0
          -106.25 -31.25 0 -106.25 -18.75 0
          -106.25 -6.25 0 -106.25 -93.75 0
          -106.25 -81.25 0 -106.25 -68.75 0
          -106.25 -56.25 0 -106.25 56.25 0
          -106.25 68.75 0 -106.25 81.25 0
          -106.25 93.75 0 -106.25 6.25 0
          -106.25 18.75 0 -106.25 31.25 0
          -106.25 43.75 0 43.75 106.25 0
          31.25 106.25 0 18.75 106.25 0
          6.25 106.25 0 93.75 106.25 0
          81.25 106.25 0 68.75 106.25 0
          56.25 106.25 0 -56.25 106.25 0
          -68.75 106.25 0 -81.25 106.25 0
          -93.75 106.25 0 -6.25 106.25 0
          -18.75 106.25 0 -31.25 106.25 0
          -43.75 106.25 0 106.25 43.75 0
          106.25 31.25 0 106.25 18.75 0
          106.25 6.25 0 106.25 56.25 0
          106.25 68.75 0 106.25 81.25 0
          106.25 93.75 0 106.25 -56.25 0
          106.25 -68.75 0 106.25 -81.25 0
          106.25 -93.75 0 106.25 -6.25 0
          106.25 -18.75 0 106.25 -31.25 0
          106.25 -43.75 0 43.75 -106.25 0
          31.25 -106.25 0 18.75 -106.25 0
          6.25 -106.25 0 93.75 -106.25 0
          81.25 -106.25 0 68.75 -106.25 0
          56.25 -106.25 0 -56.25 -106.25 0
          -68.75 -106.25 0 -81.25 -106.25 0
          -93.75 -106.25 0 -6.25 -106.25 0
          -18.75 -106.25 0 -31.25 -106.25 0
          -43.75 -106.25 0
        </DataArray>
      </Points>
      <Cells>
        <DataArray type="Int64" Name="connectivity" format="ascii" RangeMin="0" RangeMax="624">
          0 1 2 1 3 4
          2 4 5 1 4 2
          3 6 7 6 8 9
          7 9 10 6 9 7
          5 11 12 11 10 13
          12 13 14 11 13 12
          3 7 4 7 10 11
          4 11 5 7 11 4
          14 15 12 15 16 17
          12 17 5 15 17 12
          16 18 19 18 20 21
          19 21 22 18 21 19
          5 23 2 23 22 24
          2 24 0 23 24 2
          16 19 17 19 22 23
          17 23 5 19 23 17
          20 18 25 18 16 26
          25 26 27 18 26 25
          16 15 28 15 14 29
          28 29 30 15 29 28
          27 31 32 31 30 33
          32 33 34 31 33 32
          16 28 26 28 30 31
          26 31 27 28 31 26
          35 36 37 36 38 39
          37 39 40 36 39 37
          38 41 42 41 0 24
          42 24 22 41 24 42
          40 43 44 43 22 21
          44 21 20 43 21 44
          38 42 39 42 22 43
          39 43 40 42 43 39
          45 46 47 46 48 49
          47 49 50 46 49 47
          48 51 52 51 34 33
          52 33 30 51 33 52
          50 53 54 53 30 29
          54 29 14 53 29 54
          48 52 49 52 30 53
          49 53 50 52 53 49
          14 55 54 55 56 57
          54 57 50 55 57 54
          56 58 59 58 60 61
          59 61 62 58 61 59
          50 63 47 63 62 64
          47 64 45 63 64 47
          56 59 57 59 62 63
          57 63 50 59 63 57
          60 58 65 58 56 66
          65 66 67 58 66 65
          56 55 68 55 14 13
          68 13 10 55 13 68
          67 69 70 69 10 9
          70 9 8 69 9 70
          56 68 66 68 10 69
          66 69 67 68 69 66
          71 72 73 72 74 75
          73 75 76 72 75 73
          74 77 78 77 45 64
          78 64 62 77 64 78
          76 79 80 79 62 61
          80 61 60 79 61 80
          74 78 75 78 62 79
          75 79 76 78 79 75
          81 82 83 82 84 85
          83 85 86 82 85 83
          84 87 88 87 89 90
          88 90 91 87 90 88
          86 92 93 92 91 94
          93 94 95 92 94 93
          84 88 85 88 91 92
          85 92 86 88 92 85
          95 96 93 96 97 98
          93 98 86 96 98 93
          97 99 100 99 60 101
          100 101 102 99 101 100
          86 103 83 103 102 104
          83 104 81 103 104 83
          97 100 98 100 102 103
          98 103 86 100 103 98
          60 99 80 99 97 105
          80 105 76 99 105 80
          97 96 106 96 95 107
          106 107 108 96 107 106
          76 109 73 109 108 110
          73 110 71 109 110 73
          97 106 105 106 108 109
          105 109 76 106 109 105
          8 111 70 111 112 113
          70 113 67 111 113 70
          112 114 115 114 81 104
          115 104 102 114 104 115
          67 116 65 116 102 101
          65 101 60 116 101 65
          112 115 113 115 102 116
          113 116 67 115 116 113
          45 77 117 77 74 118
          117 118 119 77 118 117
          74 72 120 72 71 121
          120 121 122 72 121 120
          119 123 124 123 122 125
          124 125 126 123 125 124
          74 120 118 120 122 123
          118 123 119 120 123 118
          126 127 124 127 128 129
          124 129 119 127 129 124
          128 130 131 130 132 133
          131 133 134 130 133 131
          119 135 117 135 134 136
          117 136 45 135 136 117
          128 131 129 131 134 135
          129 135 119 131 135 129
          132 130 137 130 128 138
          137 138 139 130 138 137
          128 127 140 127 126 141
          140 141 142 127 141 140
          139 143 144 143 142 145
          144 145 146 143 145 144
          128 140 138 140 142 143
          138 143 139 140 143 138
          34 51 147 51 48 148
          147 148 149 51 148 147
          48 46 150 46 45 136
          150 136 134 46 136 150
          149 151 152 151 134 133
          152 133 132 151 133 152
          48 150 148 150 134 151
          148 151 149 150 151 148
          153 154 155 154 156 157
          155 157 158 154 157 155
          156 159 160 159 161 162
          160 162 163 159 162 160
          158 164 165 164 163 166
          165 166 167 164 166 165
          156 160 157 160 163 164
          157 164 158 160 164 157
          167 168 165 168 169 170
          165 170 158 168 170 165
          169 171 172 171 173 174
          172 174 175 171 174 172
          158 176 155 176 175 177
          155 177 153 176 177 155
          169 172 170 172 175 176
          170 176 158 172 176 170
          173 171 178 171 169 179
          178 179 180 171 179 178
          169 168 181 168 167 182
          181 182 183 168 182 181
          180 184 185 184 183 186
          185 186 187 184 186 185
          169 181 179 181 183 184
          179 184 180 181 184 179
          173 188 174 188 189 190
          174 190 175 188 190 174
          189 191 192 191 193 194
          192 194 195 191 194 192
          175 196 177 196 195 197
          177 197 153 196 197 177
          189 192 190 192 195 196
          190 196 175 192 196 190
          198 199 200 199 201 202
          200 202 203 199 202 200
          201 204 205 204 187 186
          205 186 183 204 186 205
          203 206 207 206 183 182
          207 182 167 206 182 207
          201 205 202 205 183 206
          202 206 203 205 206 202
          167 208 207 208 209 210
          207 210 203 208 210 207
          209 211 212 211 213 214
          212 214 215 211 214 212
          203 216 200 216 215 217
          200 217 198 216 217 200
          209 212 210 212 215 216
          210 216 203 212 216 210
          213 211 218 211 209 219
          218 219 220 211 219 218
          209 208 221 208 167 166
          221 166 163 208 166 221
          220 222 223 222 163 162
          223 162 161 222 162 223
          209 221 219 221 163 222
          219 222 220 221 222 219
          71 224 225 224 226 227
          225 227 228 224 227 225
          226 229 230 229 198 217
          230 217 215 229 217 230
          228 231 232 231 215 214
          232 214 213 231 214 232
          226 230 227 230 215 231
          227 231 228 230 231 227
          233 234 235 234 236 237
          235 237 238 234 237 235
          236 239 240 239 146 145
          240 145 142 239 145 240
          238 241 242 241 142 141
          242 141 126 241 141 242
          236 240 237 240 142 241
          237 241 238 240 241 237
          126 243 242 243 244 245
          242 245 238 243 245 242
          244 246 247 246 213 248
          247 248 249 246 248 247
          238 250 235 250 249 251
          235 251 233 250 251 235
          244 247 245 247 249 250
          245 250 238 247 250 245
          213 246 232 246 244 252
          232 252 228 246 252 232
          244 243 253 243 126 125
          253 125 122 243 125 253
          228 254 225 254 122 121
          225 121 71 254 121 225
          244 253 252 253 122 254
          252 254 228 253 254 252
          161 255 223 255 256 257
          223 257 220 255 257 223
          256 258 259 258 233 251
          259 251 249 258 251 259
          220 260 218 260 249 248
          218 248 213 260 248 218
          256 259 257 259 249 260
          257 260 220 259 260 257
          198 229 261 229 226 262
          261 262 263 229 262 261
          226 224 264 224 71 110
          264 110 108 224 110 264
          263 265 266 265 108 107
          266 107 95 265 107 266
          226 264 262 264 108 265
          262 265 263 264 265 262
          95 267 266 267 268 269
          266 269 263 267 269 266
          268 270 271 270 272 273
          271 273 274 270 273 271
          263 275 261 275 274 276
          261 276 198 275 276 261