<?xml version="1.0"?>
<VTKFile type="UnstructuredGrid" version="0.1" byte_order="LittleEndian" compressor="vtkZLibDataCompressor">
  <UnstructuredGrid>
    <Piece NumberOfPoints="1217" NumberOfCells="2304">
      <PointData>
        <DataArray type="Float64" Name="u" format="ascii" RangeMin="-2.6472258941e-07" RangeMax="39896396.001">
          1.2604308344e-10 8.7877698568e-11 -2.2239213952e-10 7.1264468042e-10 -3.2295069689e-09 29121.66317
          -2.4170989597e-09 2.012961075e-09 -9.1448730096e-09 1.4523201568e-08 241658.54481 113215.89982
          424650.44548 840313.68382 1787342.8856 2.2570985661e-11 2.1719845402e-10 1.7718996213e-10
          7.0525996619e-10 8.5276090882e-10 5.5838671909e-10 -1.398488e-09 -1.9205784875e-09 -5.3575460487e-09
          -8.4956769209e-11 1664.5463529 -1.154555168e-09 3.3927621547e-11 -1.0710555459e-09 -9.3825458293e-10
          24330955.681 22109105.984 23953569.177 19670918.233 21397063.523 22947272.886
          17092638.511 18695445.077 14454296.786 15914706.264 17248855.722 20142871.655
          21400442.458 18426297.056 19435915.695 23541964.423 22375919.592 21549823.319
          20884717.035 20668433.695 19101953.462 19479729.039 18696222.657 19323590.552
          16931155.727 -6.1699992099e-08 -6.059779167e-08 5.793507815e-08 -4.9457709773e-08 7.035666292e-08
          121325.88197 -4.8478616896e-08 5.9876964728e-08 -4.3348444847e-08 5.466574426e-08 100293.12955
          112010.51332 400848.6589 358842.86256 801282.17961 -5.8716909028e-08 9.2933853233e-08
          -6.2974524189e-08 531605.51305 7.8863606088e-08 -5.5227430678e-08 1766360.9142 493230.88683
          3642700.5044 1591554.1538 418376.29575 8.848982768e-08 -5.0687097166e-08 -5.0132796674e-08
          -2.5226627778e-08 8.9911717699e-08 450997.00748 501155.12504 1522359.9558 1677449.9851
          3157784.0087 3501673.4209 3690590.1081 1756749.2674 3743414.2088 -3.2841548905e-08
          -8.4900605418e-09 3.6022514481e-07 -2.2525196333e-08 -9.3830696705e-08 1606504.3111 -2.9403763168e-08
          -1.252499528e-08 -5.0667015347e-09 1.5193108822e-07 1589081.5697 1606840.3961 5214777.7824
          5238074.6205 10482024.031 17932539.961 18192263.44 21241152.935 17584461.472
          20843535.732 24036531.986 16272906.874 19580739.951 14484760.583 17690035.919
          20923822.176 22882837.081 26087570.507 24103838.278 27166988.382 14627653.744
          11375126.8 14541901.456 8305805.5665 11013648.178 5542296.2171 7768409.5146
          10155140.713 13762740.721 12469832.798 -4.8773238978e-08 -7.2604667083e-08 5.092906338e-08
          -7.1875550681e-08 9.5636087575e-08 264016.48344 -7.8855882768e-08 9.8064842781e-08 -8.0001403877e-08
          1.0023517836e-07 287311.53172 280470.07785 991396.02604 1020357.6821 2256455.1421
          -7.8757948828e-09 1.2627632113e-08 -1.4016866929e-08 280089.52151 2.4677362681e-08 -2.0057616966e-08
          1137735.2694 385860.38522 2744374.9032 1483833.4251 495026.14684 1.7629600496e-08
          -2.5063586109e-08 7.0528555769e-08 -3.6137286664e-08 9.6534371728e-09 65067.159911 134510.44159
          145239.94325 321605.30157 176328.41045 456069.53242 985979.09704 654689.94357
          1765440.6198 -1.8209162634e-08 -1.6390190999e-08 3.9298516829e-08 -2.0182832746e-08 9.6449822761e-09
          490098.61589 -2.2204522022e-08 3.4526884364e-08 -2.4264109008e-08 3.4066325712e-08 726434.45599
          611335.2965 1720653.1839 2110183.5593 3699106.9966 9569767.0448 6919634.8783
          6009755.8387 4658292.1966 3977111.9838 3268943.7408 2846017.676 2383495.9083
          1509421.4133 1235786.0445 969156.36086 1915596.0074 1458629.2019 714930.40648
          484081.37515 9983054.4419 10122676.697 7230231.9378 10009360.784 7330710.9587
          9657217.7146 7233361.6179 4911403.2136 4856926.4496 2943838.1152 6504317.9203
          5010365.7733 5317785.7567 3596273.1231 3783157.5932 3884751.235 2346466.0901
          2448583.0592 1332194.6773 1380164.0688 1395907.4308 2495703.9274 2484157.6582
          1377033.7824 1322056.8302 6124528.8882 5673172.1439 4747766.5395 5160016.197
          4433328.7204 4591831.4459 4075887.5209 3250964.0106 3447864.9137 2284440.9302
          8408832.756 10141374.645 7786894.7708 11546144.881 9228926.6557 12486982.232
          10309287.005 8227297.0026 7081889.1363 6306166.9416 8196808.5288 6312830.0121
          7665526.4705 4615978.4202 5905310.7125 7061515.7072 3148728.6712 4321702.53
          1935449.3883 2950653.1849 3981903.8661 5438650.6209 6383769.5572 4917349.5276
          5642649.9461 1968583.8587 1615769.9282 2245985.1505 1228931.283 1678077.7362
          2138464.0448 846572.16484 1139563.1614 506556.76748 674247.14581 844222.82925
          1438861.9362 1727400.3712 1006809.0382 1161082.5146 1469974.9788 1024592.0148
          1232972.287 648724.49204 886950.63287 355911.41333 586627.48174 703985.13433
          953370.50079 666052.36468 -1.5314452107e-09 -1.1625909061e-08 1.0684237208e-07 -3.6412306234e-09
          -4.1720059924e-08 62903.228894 -1.4677296497e-09 4.6274073768e-09 -3.1909742595e-10 -1.2246456926e-09
          17812.282491 36663.080025 135020.88504 70640.332245 154832.73503 -1.2166793888e-08
          8.5575371559e-09 -5.584649402e-09 571428.17971 1.5594384986e-08 -4.9894637144e-09 1793915.4008
          433868.66058 3488433.8444 1341559.8381 298711.33239 5.4887068188e-09 -2.8770511344e-09
          3.7343298293e-09 -1.2517945e-09 2.1187700926e-08 833972.19369 698876.69301 2994183.2841
          2583361.9567 6561639.7704 5808828.539 5035795.4264 2185183.0083 4255887.5267
          23077860.403 25885594.678 21793628.425 28003687.62 24298252.852 20349875.658
          29348182.414 26087197.448 29875830.71 27132396.53 23952429.939 22487242.486
          18724728.703 20489839.559 16928769.068 27110190.201 30831890.279 29877065.622
          33984546.161 33428901.575 36354892.402 36319950.281 35128826.403 31826446.954
          32910261.988 24152267.057 24583446.404 27931962.808 24298296.986 27966050.071
          23318765.996 27189799.633 30766752.822 31248639.641 33871227.146 11922364.706
          12661739.464 15812948.764 11837026.722 16043230.838 19813766.174 9525485.8749
          14425872.564 6393704.6513 11318590.257 16843295.207 19313848.849 23672705.839
          22311022.941 27152917.215 30060729.187 30369046.073 33650770.471 29698496.998
          33629729.468 36538704.763 28029629.191 32487357.015 25469368.439 30289201.778
          34493099.757 36112056.91 38542733.903 37703449.736 39616813.361 24207506.267
          17502971.959 23883113.317 10917357.04 16805512.481 5573450.4819 10198079.903
          15500362.207 22722084.653 20789985.493 -1.3495571632e-08 -1.1222856966e-08 4.3910226146e-09
          -6.7509142058e-09 1.9543125849e-08 382700.37675 -4.4150506313e-09 2.0774280331e-08 -6.3298500192e-09
          -5.3553257982e-08 204232.97827 288532.05104 1305033.255 997031.13791 2722812.5999
          2777168.2659 4128694.141 3802401.0569 5663133.223 7734018.8127 4753690.4046
          7094525.7375 9704513.6838 12463817.43 1306746.081 383536.86771 2.4402406879e-08
          529376.91779 1794741.0852 2263234.4892 -1.5431277187e-08 -2.3403834793e-08 3.660422177e-08
          -2.4126422793e-08 1.065058892e-08 1.1174364924e-07 799257.39813 663632.29448 2664082.1185
          3.1286000377e-10 -2.3327635491e-09 21728.210776 2.9146837585e-09 -2.3362541876e-09 80201.524247
          41151.494367 6.7846455485e-09 -8.3785527242e-09 8401.4792629 8661.2864624 5.1183822293e-09
          21503.219465 34226.086501 78615.309585 -1.0758015413e-08 -1.3837427382e-08 1.2648921972e-08
          -2.3389309243e-08 2.0998720508e-08 2.2242110376e-08 55762.227448 38377.444081 135722.69494
          16899062.839 17153267.689 14393801.099 14701526.804 14660918.959 11962459.318
          12305558.215 12352126.883 12092596.943 15887938.038 14728894.806 13444474.614
          12276481.933 13395562.53 10996473.17 12288253.115 10225868.671 11347912.638
          8292729.0756 9353720.818 7500691.4418 8374212.7804 10270139.388 9096733.4039
          14582689.625 14303698.513 12409316.5 13602836.012 12162854.871 10340505.233
          16502807.665 17571057.654 17564868.408 15934119.663 15599616.229 14233867.452
          16565145.946 13813713.736 15268110.149 10974107.25 12755885.392 10143444.652
          11628529.08 13887506.24 12446666.616 696179.94247 1243349.3353 583894.21515
          1046320.5099 1635416.3361 468653.77165 845455.16103 1327306.5132 1896196.6466
          311214.82536 86815.440386 4.6916247314e-08 72191.408718 259933.48215 206644.60167
          -3.7277320066e-08 -2.9514650526e-08 3.3504289827e-08 -2.6221669485e-08 5.7759242386e-08 -6.6336297676e-08
          40405.954509 56756.518304 153757.34457 1.5111145231e-07 -2.3423100402e-08 1180543.161
          -1.2736474685e-08 -1.8540572921e-08 3548313.3248 1009495.8333 2.394780606e-08 -1.4602046074e-08
          714580.50475 2209239.4217 4528594.9202 5383534.3329 2904598.934 6092978.58
          7846151.8789 12950657.41 8842037.8325 18240572.356 13695049.624 18422144.47
          13984509.833 9570779.9503 9963914.8757 7565282.7754 12540371.627 12935671.38
          18000211.016 18613447.181 18696261.522 7631956.306 7397496.472 6884447.7095
          11775217.142 12394857.889 17423886.38 5294342.5246 7604398.9583 9682055.2687
          9888140.4418 12474742.451 15016112.388 18071661.685 15031092.169 20898327.227
          9462746.9425 15274438.661 8221982.1409 14155478.244 20319681.482 6878361.6768
          12664780.467 19175457.07 25329418.315 4333028.657 1103715.447 -7.6736645567e-08
          770729.76689 3435947.7827 2637596.8778 -3.4367035354e-08 -1.8305025482e-08 9.8487435982e-08
          -1.8544667392e-08 1.3448989235e-08 4.0095166401e-08 639841.059 727289.80458 2409697.878
          25600363.998 28142452.282 23720109.292 26036811.551 28040810.476 21536817.757
          23595430.612 25340513.341 26745399.473 22639077.364 19563714.034 16445253.54
          17963625.886 20891053.176 18892728.785 12919553.753 11320630.53 14633134.963
          9730828.1859 12795870.264 15901913.432 10764577.231 7357513.5688 9428992.45
          4468576.1039 6271751.9508 3642061.0062 5214832.9896 8096362.4983 6800340.0618
          8790365.4892 6719530.9438 4765370.1233 3915642.043 5597283.4872 3066222.4711
          2050983.9153 484009.12375 1485618.88 2260352.9046 2208072.5202 3563023.9886
          2101816.871 3398047.2282 4977187.6336 1020549.9179 286906.40026 9.9818259411e-08
          279713.69085 995216.03293 945915.76064 -7.9417121273e-08 -7.8150424304e-08 1.0054872928e-07
          -7.4523259907e-08 8.4120269511e-08 1.0151134413e-07 248657.58953 264999.60317 879023.63811
          3.4357961249e-08 -4.8582518614e-08 374845.58275 7.0864875403e-08 -5.3443537837e-08 1380554.8916
          421935.49514 8.1648322755e-08 -6.1059887665e-08 443096.51368 1544710.5512 3094421.9848
          3286685.8192 1507926.1751 3312167.9168 4436791.1638 6547605.85 4945422.6508
          9057312.6858 7231684.1598 5239128.7419 3593620.3399 4071240.2678 5421686.5526
          4100112.7589 5929525.5374 5903224.6909 8163494.3165 7643555.1445 10227919.715
          2211415.3334 1148531.196 464644.82593 1091271.9363 2345925.1437 2158636.496
          345764.0792 161277.26516 843342.99489 4520049.9568 5252753.1682 7238406.6524
          5879137.6808 8463601.4504 10054645.703 2471198.8321 820346.08333 3.6915188713e-08
          888299.33819 2778037.711 3016067.3314 -2.5165165825e-08 -2.4730995911e-08 2.8485117008e-08
          -1.9775622217e-08 1.2056476274e-07 -2.6472258941e-07 936623.39887 927511.46029 3180226.098
          176280.83947 95699.324239 38516.577249 18380.383882 5250.4338861 3.7045477636e-09
          -1.5166983174e-09 -2.9294822783e-09 4.792934542e-10 1.8101846772e-09 -2.4700738265e-09 2.9024680676e-10
          2.8880579372e-10 1.2841389645e-10 274948.71461 386229.67181 505493.92212 94517.923839
          64519.616568 1.1225453922e-08 635226.60723 165831.86967 126903.07503 9.1468444387e-08
          -2.209578583e-09 -4.0950819653e-08 -1.5437434981e-08 -1.9214359563e-08 3.0761996285e-08 -8.1792734927e-09
          1532756.3498 1508004.6459 619345.17936 1438326.8375 583613.72059 529197.47776
          122560.09702 146248.92836 4.3898683984e-08 2952275.6207 4825639.722 6959358.0746
          4616253.3352 2873885.7586 2716446.5784 6532047.7362 5979063.7539 4298531.524
          575644.0681 155273.27164 140483.51024 1.1819535664e-07 1.0330707322e-07 -8.8803483901e-08
          -7.6290394365e-08 -5.7636426331e-08 8.8520658352e-08 -5.04612518e-08 606718.71355 621330.65959
          619544.2736 171877.29977 165884.96388 1.2804449252e-07 601721.00125 168895.60621
          173105.899 7.0595678379e-08 1.7173324583e-07 -1.0922834276e-07 -1.1219775423e-07 -1.007843469e-07
          1.2322032396e-07 -9.8477283711e-08 1322202.7205 1287476.0372 612815.86445 1232726.4777
          613471.07486 603017.20431 188640.27928 179203.41663 1.3706835344e-07 2183147.631
          3020563.5234 3676008.7018 2759579.1143 2054333.6911 1902842.74 3974374.8705
          3318902.4378 3233762.5862 2643606.6644 2753492.1237 2465918.4368 5465716.8015
          5985778.4274 4574893.3039 6051763.2335 4799051.0706 4602481.9147 3627740.1702
          3656965.1961 2743500.9206 7139851.7014 8961056.1204 10881521.493 9156768.8257
          7525560.447 7384934.4983 10433653.342 9311469.3055 8384500.2498 4066236.2953
          2707846.5785 3273525.7019 1609363.6829 2143737.8061 2547221.5669 3324180.6971
          2466548.6523 1608181.3887 1308092.6988 2016983.6904 1038549.2152 689787.27134
          175459.7074 532142.33047 537945.23559 155456.17904 173633.07201 9.0923225915e-08
          1.0372121608e-07 -7.7350396805e-08 -8.651250279e-08 -9.6398872207e-08 1.136720238e-07 -8.8992095822e-08
          468314.29855 395225.86279 318190.44509 115393.26442 135845.37192 7.7487879025e-08
          241172.48256 71520.624993 93669.404982 3.1431376063e-08 5.1961817284e-08 -3.3777030672e-08
          -4.8849741539e-08 -5.8343966039e-08 6.8499861246e-08 -6.7384193131e-08 403361.48275 309943.61439
          193969.7377 227293.25962 150874.59545 112420.09196 44432.470324 58036.176569
          8.5739304396e-09 502621.71313 484801.19095 342776.7116 301665.3106 358303.59965
          235121.03577 163511.04563 51313.27113 160104.53452 65993.020836 17372.63237
          30253.401748 7.4496292094e-09 1.4769344842e-08 -6.9418178644e-09 -1.2794964481e-08 -1.9944426686e-08
          2.8936774712e-08 -2.1218359899e-08 28652.679334 6280.6763912 -1.438527361e-09 1084.6020089
          6961.6522298 5.931090813e-11 3.3100331396e-10 6.0966539598e-10 -8.9249455782e-10 1.4328596036e-10
          1.0605044391e-09 2.03774331e-11 1.8889077969e-10 1.04431019e-09 -2.5843038266e-09 -1.8727606219e-09
          1.1124098344e-09 -1.9915513143e-10 91540.095704 -2.3484621349e-10 2.5143666186e-10 272732.76803
          32932.347886 -1.393765894e-09 8.9549226008e-11 181617.22562 915296.85967 2547583.591
          1707320.0274 550338.31017 1006909.4627 5288731.6665 7011425.2072 3842745.8765
          8478473.9775 5034446.1804 2536215.7617 5964937.7985 9098742.2028 8148051.2193
          12808465.52 11559735.07 15386583.814 13601332.775 10099862.21 11634711.385
          7083884.8634 8190025.5357 9269491.7812 12014003.758 10571595.15 14618618.148
          13058439.409 17308352.695 16038445.486 18693819.587 19690035.659 16653506.323
          19919540.142 17236647.938 14426093.377 21945960.749 24962871.581 27606613.543
          25095048.345 22545593.1 22352389.036 29841458.386 28842733.706 27236578.242
          26947957.719 25969092.335 24404291.426 34709067.474 38201948.266 34564231.933
          39888420.32 37773374.535 39112753.765 36064047.717 33232297.946 30817612.127
          36983403.673 38229406.08 38295340.29 39475259.006 39417100.988 39896396.001
          37325211.652 36552292.785 38488488.551 34045275.601 36921056.103 38892745.002
          35697171.371 33845856.682 35427989.931 30937508.43 32409203.06 28449566.488
          29351160.378 33451939.807 29876661.502 32872427.274 29515419.334 25784655.78
          27330584.86 30797444.134 27790565.464 22792490.707 19395875.714 23739185.763
          24350320.994 20279554.796 24999138.098 15458397.758 20426835.751 25326815.26
          18610156.98 12742161.806 7388065.065 8425301.234 14138608.013 9468507.6889
          3816595.3702 1245644.3506 4499199.3598 38522563.541 36002786.399 36746616.877
          32112962.719 32971943.166 32536555.038 36130973.536 32533021.83 28060796.849
          29216249.521 33122372.946 28874189.691 23958901.046 22182395.622 26047207.708
          20160270.763 23756780.289 26743223.173 18551342.672 11963390.831 17263047.405
          6522643.3761 11006866.257 5938106.6791 9895719.0962 15757345.336 14069620.149
          13808308.304 9058166.1012 4884033.4943 4174273.2261 7815513.9541 3448616.7266
          2048028.3546 505005.7361 1671168.1657 2673829.4434 2490448.9814 5496363.3359
          2188736.7061 4880852.7811 8912334.4267 999617.62567 227982.30332 9.2736270732e-08
          220906.26399 931829.989 800369.39941 7.4991107994e-09 -2.0245028504e-09 -5.4351450159e-08
          1.2109419831e-10 1.0367425979e-08 98942.835258 3.750284105e-10 8.0283546091e-10 1.2002651391e-09
          3.2605507298e-09 7.1549711279e-12 7.1549711288e-12 5.1395312393e-10 1.7119537872e-10 2.3835898829e-09
          5.3379402011e-09 6.7470020838e-10 1.4267669906e-09 4.7729745778e-08 5.0373924646e-08 4.2466506267e-08
          3.9286523082e-08 4.2880674825e-08 4.5308410041e-08 4.3502526083e-08 3.5545593875e-08 1.4493936557e-08
          1.4970723194e-08 1.2651353423e-08 1.2841762335e-08 4.262942057e-08 6.1180715153e-08 5.9970501432e-08
          6.3346639381e-08 9.326344152e-09 1.3266498069e-08 1.6692014225e-08 2.3987324991e-08 1.3605641702e-08
          1.4279093343e-08 1.6023163037e-08 1.7515759819e-08 1.2713862798e-08 3.6964921607e-09 3.292686907e-09
          2.0780716141e-09 6.8170484922e-09 4.0757329088e-09 2.9224109487e-09 1.9006874729e-09 9.0248989317e-09
          6.4348112206e-09 5.0394250684e-09 3.5444863212e-09 7.2737262982e-09 1.156239895e-08 1.6636984953e-08
          2.4599345139e-08 2.3966241629e-09 3.5442675137e-09 6.6087487464e-09 5.191965352e-09 9.0291315454e-09
          1.2705108577e-08 2.0142254471e-08 1.5626258029e-08 3.5252581694e-08 3.0547673619e-08 2.5135971053e-08
          1.7163466341e-08 2.35789311e-08 1.2488394957e-08 1.1581199363e-08 1.0648850925e-08 1.7601333042e-08
          1.4738241806e-08 1.3134404506e-08 1.1595176957e-08 6.4548590679e-08 6.409377477e-08 6.2307406604e-08
          6.1586234357e-08 3.3107909975e-08 4.0856989988e-08 4.3943083393e-08 4.0291261874e-08 1.8487011827e-08
          1.8870250899e-08 2.0044415293e-08 2.2966131624e-08 5.6786519386e-10 -5.2716965756e-10 2.5226810859e-10
          2.0873606713e-10 1.6805366735e-08 1.3914924123e-08 6.9662650168e-09 3.0924123039e-09 5.7503246316e-08
          4.6841414273e-08 4.3089102824e-08 2.3676772272e-08 8.804025419e-08 8.0996111038e-08 7.636774732e-08
          6.7694843183e-08 7.2261465237e-08 7.6279839371e-08 7.3846279741e-08 1.0270254878e-07 4.8412499467e-08
          5.1663340938e-08 5.8849621959e-08 6.6114098471e-08 1.1714642769e-08 1.6958614298e-08 2.2024321998e-08
          3.8492396785e-08 1.1572458049e-09 5.1006995854e-10 1.137234483e-10 6.4596180112e-12 6.4596180092e-12
          5.3114596645e-10 3.141971511e-09 7.055086397e-09 1.1396497394e-09 6.6012068951e-10 3.8173806783e-10
          1.5345342224e-10 -6.0435865676e-10 9.5326842713e-10 3.9627665225e-10 2.1766463004e-10
        </DataArray>
      </PointData>
      <CellData>
      </CellData>
      <Points>
        <DataArray type="Float64" Name="Points" NumberOfComponents="3" format="ascii" RangeMin="0.85225478732" RangeMax="149.23163285">
          100 -100 0 100 -91.007049561 0
          92.286247253 -90.56880188 0 100 -82.014099121 0
          92.286247253 -81.57585144 0 84.572502136 -81.13760376 0
          100 -73.021148682 0 92.286247253 -72.582901001 0
          100 -64.028198242 0 92.286247253 -63.589950562 0
          84.572502136 -63.151699066 0 84.572502136 -72.14465332 0
          76.85874939 -71.70639801 0 76.85874939 -62.713451385 0
          69.144996643 -62.27519989 0 -100 -100 0
          -93.75 -100 0 -100 -95.125 0
          -87.5 -100 0 -93.75 -95.125 0
          -100 -90.25 0 -81.25 -100 0
          -87.5 -95.125 0 -75 -100 0
          -81.25 -95.125 0 -87.5 -90.25 0
          -93.75 -90.25 0 -100 -85.375 0
          -93.75 -85.375 0 -100 -80.5 0
          19.697799683 34.407501221 0 18.346025467 39.208175659 0
          13.599164963 37.485874176 0 16.994249344 44.008850098 0
          12.247389793 42.286548615 0 7.5005297661 40.564250946 0
          15.642475128 48.809524536 0 10.895614624 47.087226868 0
          14.290699959 53.610198975 0 9.5438404083 51.887901306 0
          4.7969799042 50.165599823 0 6.1487550735 45.364925385 0
          1.4018950462 43.642623901 0 0.050119999796 48.44329834 0
          -4.6967401505 46.721000671 0 24.7166996 33.262073517 0
          29.735599518 32.116649628 0 23.364925385 38.06275177 0
          34.754501343 30.971225739 0 28.383825302 36.917324066 0
          39.773399353 29.825799942 0 33.40272522 35.771900177 0
          27.032049179 41.717998505 0 22.013149261 42.863426208 0
          20.661375046 47.664100647 0 100 29.580499649 0
          100 33.981723785 0 95.840423584 33.981723785 0
          100 38.382949829 0 95.840423584 38.382949829 0
          91.680847168 38.382949829 0 100 42.784175873 0
          95.840423584 42.784175873 0 100 47.185398102 0
          95.840423584 47.185398102 0 91.680847168 47.185398102 0
          91.680847168 42.784175873 0 87.521278381 42.784175873 0
          87.521278381 47.185398102 0 83.361701965 47.185398102 0
          -100 -9.5616903305 0 -93.897796631 -4.5374426842 0
          -100 -2.0038924217 0 -87.795600891 0.48680499196 0
          -93.897796631 3.0203549862 0 -100 5.5539050102 0
          -81.693397522 5.5110526085 0 -87.795600891 8.0446023941 0
          -75.591201782 10.535300255 0 -81.693397522 13.068849564 0
          -87.795600891 15.602399826 0 -93.897796631 10.578152657 0
          -100 13.111702919 0 -93.897796631 18.135950089 0
          -100 20.669500351 0 -94.249649048 -13.005267143 0
          -88.499298096 -16.44884491 0 -88.147453308 -7.9810199738 0
          -82.748947144 -19.892421722 0 -82.397102356 -11.42459774 0
          -76.998596191 -23.336000443 0 -76.646751404 -14.868174553 0
          -76.294898987 -6.4003500938 0 -82.045249939 -2.9567725658 0
          -75.94304657 2.0674750805 0 0 -100 0
          6.25 -100 0 -0.88223999739 -90.721199036 0
          12.5 -100 0 5.3677601814 -90.721199036 0
          -1.7644799948 -81.442398071 0 18.75 -100 0
          11.617759705 -90.721199036 0 25 -100 0
          17.867759705 -90.721199036 0 10.735520363 -81.442398071 0
          4.485519886 -81.442398071 0 -2.6467199326 -72.163597107 0
          3.6032800674 -72.163597107 0 -3.5289599895 -62.884799957 0
          45.184101105 -27.310800552 0 47.674449921 -19.016311646 0
          42.655548096 -19.250947952 0 50.164798737 -10.721824646 0
          45.145900726 -10.956459999 0 40.126998901 -11.191095352 0
          52.655151367 -2.4273374081 0 47.636249542 -2.6619725227 0
          55.145500183 5.8671498299 0 50.126598358 5.6325149536 0
          45.107700348 5.3978800774 0 42.617351532 -2.896607399 0
          37.598449707 -3.1312425137 0 40.088798523 5.1632452011 0
          35.069900513 4.928609848 0 51.118225098 -27.058950424 0
          57.052349091 -26.807100296 0 53.608573914 -18.764463425 0
          62.986476898 -26.555250168 0 59.542701721 -18.512613297 0
          68.920600891 -26.30340004 0 65.476821899 -18.260763168 0
          62.033050537 -10.218125343 0 56.098926544 -10.469975471 0
          58.58927536 -2.1754875183 0 100 -28.056400299 0
          100 -20.85178566 0 94.981124878 -21.393835068 0
          100 -13.647171974 0 94.981124878 -14.189220428 0
          89.962249756 -14.731269836 0 100 -6.4425573349 0
          94.981124878 -6.984606266 0 100 0.76205700636 0
          94.981124878 0.22000774741 0 89.962249756 -0.32204151154 0
          89.962249756 -7.526655674 0 84.943374634 -8.0687046051 0
          84.943374634 -0.86409074068 0 79.924499512 -1.4061399698 0
          -100 -61 0 -93.009422302 -58.013774872 0
          -100 -54.570201874 0 -86.018852234 -55.027549744 0
          -93.009422302 -51.583976746 0 -100 -48.140399933 0
          -79.028274536 -52.041324615 0 -86.018852234 -48.597751617 0
          -72.037696838 -49.055099487 0 -79.028274536 -45.611526489 0
          -86.018852234 -42.167949677 0 -93.009422302 -45.154174805 0
          -100 -41.710601807 0 -93.009422302 -38.724376678 0
          -100 -35.280799866 0 -93.75 -65.875 0
          -87.5 -70.75 0 -86.759422302 -62.888774872 0
          -81.25 -75.625 0 -80.509422302 -67.763778687 0
          -75 -80.5 0 -74.259422302 -72.638778687 0
          -73.518852234 -64.777549744 0 -79.768852234 -59.902549744 0
          -72.778274536 -56.916324615 0 -50 -100 0
          -43.75 -100 0 -49.259426117 -92.138778687 0
          -37.5 -100 0 -43.009426117 -92.138778687 0
          -48.518848419 -84.277549744 0 -31.25 -100 0
          -36.759426117 -92.138778687 0 -25 -100 0
          -30.50942421 -92.138778687 0 -36.018848419 -84.277549744 0
          -42.268848419 -84.277549744 0 -47.778274536 -76.41632843 0
          -41.528274536 -76.41632843 0 -47.037700653 -68.555099487 0
          -29.091299057 59.034500122 0 -31.248125076 64.155174255 0
          -37.954898834 64.155174255 0 -33.404949188 69.275848389 0
          -40.111724854 69.275848389 0 -46.818500519 69.275848389 0
          -35.561775208 74.396522522 0 -42.268550873 74.396522522 0
          -37.718601227 79.517196655 0 -44.425376892 79.517196655 0
          -51.132148743 79.517196655 0 -48.975326538 74.396522522 0
          -55.682098389 74.396522522 0 -57.838924408 79.517196655 0
          -64.545700073 79.517196655 0 -22.640527725 60.055648804 0
          -16.189754486 61.0768013 0 -24.797351837 65.176322937 0
          -9.7389822006 62.097949982 0 -18.346580505 66.197471619 0
          -3.2882099152 63.119098663 0 -11.895807266 67.21862793 0
          -20.503404617 71.318153381 0 -26.954177856 70.29699707 0
          -29.111001968 75.417671204 0 22.514900208 67.203796387 0
          19.700550079 71.303321838 0 13.907299995 71.303321838 0
          16.886199951 75.40284729 0 11.092949867 75.40284729 0
          5.2996997833 75.40284729 0 14.071849823 79.502372742 0
          8.2785997391 79.502372742 0 11.257499695 83.601898193 0
          5.4642500877 83.601898193 0 -0.32899999619 83.601898193 0
          2.4853498936 79.502372742 0 -3.3078999519 79.502372742 0
          -6.1222500801 83.601898193 0 -11.915499687 83.601898193 0
          28.040950775 66.902099609 0 33.567001343 66.600402832 0
          25.226600647 71.001625061 0 39.093048096 66.298698425 0
          30.752649307 70.699928284 0 44.619098663 65.997001648 0
          36.278701782 70.398223877 0 27.938299179 74.799453735 0
          22.412250519 75.101150513 0 19.597900391 79.200675964 0
          27.181650162 61.958824158 0 31.848400116 56.713848114 0
          32.707698822 61.657123566 0 36.515148163 51.468875885 0
          37.374450684 56.412151337 0 41.181900024 46.223899841 0
          42.04119873 51.167175293 0 42.900501251 56.110450745 0
          38.23374939 61.355426788 0 43.759799957 61.053726196 0
          63.463600159 26.018199921 0 67.578826904 26.366725922 0
          63.419223785 30.767950058 0 71.69405365 26.715250015 0
          67.534446716 31.116474152 0 63.374851227 35.517700195 0
          75.809272766 27.063774109 0 71.649673462 31.465000153 0
          79.924499512 27.41230011 0 75.764900208 31.813524246 0
          71.605300903 36.214748383 0 67.490074158 35.866226196 0
          63.330474854 40.267448425 0 67.445701599 40.615974426 0
          63.28609848 45.01720047 0 66.723297119 64.79019928 0
          64.632896423 69.191421509 0 58.382900238 69.191421509 0
          62.542499542 73.592651367 0 56.292499542 73.592651367 0
          50.042499542 73.592651367 0 60.452098846 77.993873596 0
          54.202098846 77.993873596 0 58.361698151 82.395103455 0
          52.111698151 82.395103455 0 45.861698151 82.395103455 0
          47.952098846 77.993873596 0 41.702098846 77.993873596 0
          39.611698151 82.395103455 0 33.361698151 82.395103455 0
          70.882896423 64.79019928 0 75.042503357 64.79019928 0
          68.792503357 69.191421509 0 79.202102661 64.79019928 0
          72.952102661 69.191421509 0 83.361701965 64.79019928 0
          77.111701965 69.191421509 0 70.861701965 73.592651367 0
          66.702102661 73.592651367 0 64.611701965 77.993873596 0
          100 64.79019928 0 100 69.191421509 0
          93.75 69.191421509 0 100 73.592651367 0
          93.75 73.592651367 0 87.5 73.592651367 0
          100 77.993873596 0 93.75 77.993873596 0
          100 82.395103455 0 93.75 82.395103455 0
          87.5 82.395103455 0 87.5 77.993873596 0
          81.25 77.993873596 0 81.25 82.395103455 0
          75 82.395103455 0 -100 50.900798798 0
          -91.136421204 51.917499542 0 -100 57.038200378 0
          -82.272850037 52.934200287 0 -91.136421204 58.054901123 0
          -100 63.175598145 0 -73.40927124 53.950901031 0
          -82.272850037 59.071601868 0 -64.545700073 54.967601776 0
          -73.40927124 60.088298798 0 -82.272850037 65.208999634 0
          -91.136421204 64.192298889 0 -100 69.31300354 0
          -91.136421204 70.329696655 0 -100 75.450401306 0
          -90.960250854 47.057723999 0 -81.920501709 43.2146492 0
          -82.096672058 48.074424744 0 -72.880752563 39.371574402 0